+ 0.1 0 1 tcp 40 ------- 0 0.0 3.0 0 0
- 0.1 0 1 tcp 40 ------- 0 0.0 3.0 0 0
r 0.120064 0 1 tcp 40 ------- 0 0.0 3.0 0 0
+ 0.120064 1 2 tcp 40 ------- 0 0.0 3.0 0 0
- 0.120064 1 2 tcp 40 ------- 0 0.0 3.0 0 0
r 0.220704 1 2 tcp 40 ------- 0 0.0 3.0 0 0
+ 0.220704 2 3 tcp 40 ------- 0 0.0 3.0 0 0
- 0.220704 2 3 tcp 40 ------- 0 0.0 3.0 0 0
r 0.240768 2 3 tcp 40 ------- 0 0.0 3.0 0 0
+ 0.240768 3 2 ack 40 ------- 0 3.0 0.0 0 1
- 0.240768 3 2 ack 40 ------- 0 3.0 0.0 0 1
r 0.260832 3 2 ack 40 ------- 0 3.0 0.0 0 1
+ 0.260832 2 1 ack 40 ------- 0 3.0 0.0 0 1
- 0.260832 2 1 ack 40 ------- 0 3.0 0.0 0 1
r 0.361472 2 1 ack 40 ------- 0 3.0 0.0 0 1
+ 0.361472 1 0 ack 40 ------- 0 3.0 0.0 0 1
- 0.361472 1 0 ack 40 ------- 0 3.0 0.0 0 1
r 0.381536 1 0 ack 40 ------- 0 3.0 0.0 0 1
+ 0.381536 0 1 tcp 1040 ------- 0 0.0 3.0 1 2
- 0.381536 0 1 tcp 1040 ------- 0 0.0 3.0 1 2
+ 0.381536 0 1 tcp 1040 ------- 0 0.0 3.0 2 3
- 0.3832 0 1 tcp 1040 ------- 0 0.0 3.0 2 3
r 0.4032 0 1 tcp 1040 ------- 0 0.0 3.0 1 2
+ 0.4032 1 2 tcp 1040 ------- 0 0.0 3.0 1 2
- 0.4032 1 2 tcp 1040 ------- 0 0.0 3.0 1 2
r 0.404864 0 1 tcp 1040 ------- 0 0.0 3.0 2 3
+ 0.404864 1 2 tcp 1040 ------- 0 0.0 3.0 2 3
- 0.41984 1 2 tcp 1040 ------- 0 0.0 3.0 2 3
r 0.51984 1 2 tcp 1040 ------- 0 0.0 3.0 1 2
+ 0.51984 2 3 tcp 1040 ------- 0 0.0 3.0 1 2
- 0.51984 2 3 tcp 1040 ------- 0 0.0 3.0 1 2
r 0.53648 1 2 tcp 1040 ------- 0 0.0 3.0 2 3
+ 0.53648 2 3 tcp 1040 ------- 0 0.0 3.0 2 3
- 0.53648 2 3 tcp 1040 ------- 0 0.0 3.0 2 3
r 0.541504 2 3 tcp 1040 ------- 0 0.0 3.0 1 2
+ 0.541504 3 2 ack 40 ------- 0 3.0 0.0 1 4
- 0.541504 3 2 ack 40 ------- 0 3.0 0.0 1 4
r 0.558144 2 3 tcp 1040 ------- 0 0.0 3.0 2 3
+ 0.558144 3 2 ack 40 ------- 0 3.0 0.0 2 5
- 0.558144 3 2 ack 40 ------- 0 3.0 0.0 2 5
r 0.561568 3 2 ack 40 ------- 0 3.0 0.0 1 4
+ 0.561568 2 1 ack 40 ------- 0 3.0 0.0 1 4
- 0.561568 2 1 ack 40 ------- 0 3.0 0.0 1 4
r 0.578208 3 2 ack 40 ------- 0 3.0 0.0 2 5
+ 0.578208 2 1 ack 40 ------- 0 3.0 0.0 2 5
- 0.578208 2 1 ack 40 ------- 0 3.0 0.0 2 5
r 0.662208 2 1 ack 40 ------- 0 3.0 0.0 1 4
+ 0.662208 1 0 ack 40 ------- 0 3.0 0.0 1 4
- 0.662208 1 0 ack 40 ------- 0 3.0 0.0 1 4
r 0.678848 2 1 ack 40 ------- 0 3.0 0.0 2 5
+ 0.678848 1 0 ack 40 ------- 0 3.0 0.0 2 5
- 0.678848 1 0 ack 40 ------- 0 3.0 0.0 2 5
r 0.682272 1 0 ack 40 ------- 0 3.0 0.0 1 4
+ 0.682272 0 1 tcp 1040 ------- 0 0.0 3.0 3 6
- 0.682272 0 1 tcp 1040 ------- 0 0.0 3.0 3 6
+ 0.682272 0 1 tcp 1040 ------- 0 0.0 3.0 4 7
- 0.683936 0 1 tcp 1040 ------- 0 0.0 3.0 4 7
r 0.698912 1 0 ack 40 ------- 0 3.0 0.0 2 5
+ 0.698912 0 1 tcp 1040 ------- 0 0.0 3.0 5 8
- 0.698912 0 1 tcp 1040 ------- 0 0.0 3.0 5 8
+ 0.698912 0 1 tcp 1040 ------- 0 0.0 3.0 6 9
- 0.700576 0 1 tcp 1040 ------- 0 0.0 3.0 6 9
r 0.703936 0 1 tcp 1040 ------- 0 0.0 3.0 3 6
+ 0.703936 1 2 tcp 1040 ------- 0 0.0 3.0 3 6
- 0.703936 1 2 tcp 1040 ------- 0 0.0 3.0 3 6
r 0.7056 0 1 tcp 1040 ------- 0 0.0 3.0 4 7
+ 0.7056 1 2 tcp 1040 ------- 0 0.0 3.0 4 7
r 0.720576 0 1 tcp 1040 ------- 0 0.0 3.0 5 8
+ 0.720576 1 2 tcp 1040 ------- 0 0.0 3.0 5 8
- 0.720576 1 2 tcp 1040 ------- 0 0.0 3.0 4 7
r 0.72224 0 1 tcp 1040 ------- 0 0.0 3.0 6 9
+ 0.72224 1 2 tcp 1040 ------- 0 0.0 3.0 6 9
- 0.737216 1 2 tcp 1040 ------- 0 0.0 3.0 5 8
- 0.753856 1 2 tcp 1040 ------- 0 0.0 3.0 6 9
r 0.820576 1 2 tcp 1040 ------- 0 0.0 3.0 3 6
+ 0.820576 2 3 tcp 1040 ------- 0 0.0 3.0 3 6
- 0.820576 2 3 tcp 1040 ------- 0 0.0 3.0 3 6
r 0.837216 1 2 tcp 1040 ------- 0 0.0 3.0 4 7
+ 0.837216 2 3 tcp 1040 ------- 0 0.0 3.0 4 7
- 0.837216 2 3 tcp 1040 ------- 0 0.0 3.0 4 7
r 0.84224 2 3 tcp 1040 ------- 0 0.0 3.0 3 6
+ 0.84224 3 2 ack 40 ------- 0 3.0 0.0 3 10
- 0.84224 3 2 ack 40 ------- 0 3.0 0.0 3 10
r 0.853856 1 2 tcp 1040 ------- 0 0.0 3.0 5 8
+ 0.853856 2 3 tcp 1040 ------- 0 0.0 3.0 5 8
- 0.853856 2 3 tcp 1040 ------- 0 0.0 3.0 5 8
r 0.85888 2 3 tcp 1040 ------- 0 0.0 3.0 4 7
+ 0.85888 3 2 ack 40 ------- 0 3.0 0.0 4 11
- 0.85888 3 2 ack 40 ------- 0 3.0 0.0 4 11
r 0.862304 3 2 ack 40 ------- 0 3.0 0.0 3 10
+ 0.862304 2 1 ack 40 ------- 0 3.0 0.0 3 10
- 0.862304 2 1 ack 40 ------- 0 3.0 0.0 3 10
r 0.870496 1 2 tcp 1040 ------- 0 0.0 3.0 6 9
+ 0.870496 2 3 tcp 1040 ------- 0 0.0 3.0 6 9
- 0.870496 2 3 tcp 1040 ------- 0 0.0 3.0 6 9
r 0.87552 2 3 tcp 1040 ------- 0 0.0 3.0 5 8
+ 0.87552 3 2 ack 40 ------- 0 3.0 0.0 5 12
- 0.87552 3 2 ack 40 ------- 0 3.0 0.0 5 12
r 0.878944 3 2 ack 40 ------- 0 3.0 0.0 4 11
+ 0.878944 2 1 ack 40 ------- 0 3.0 0.0 4 11
- 0.878944 2 1 ack 40 ------- 0 3.0 0.0 4 11
r 0.89216 2 3 tcp 1040 ------- 0 0.0 3.0 6 9
+ 0.89216 3 2 ack 40 ------- 0 3.0 0.0 6 13
- 0.89216 3 2 ack 40 ------- 0 3.0 0.0 6 13
r 0.895584 3 2 ack 40 ------- 0 3.0 0.0 5 12
+ 0.895584 2 1 ack 40 ------- 0 3.0 0.0 5 12
- 0.895584 2 1 ack 40 ------- 0 3.0 0.0 5 12
r 0.912224 3 2 ack 40 ------- 0 3.0 0.0 6 13
+ 0.912224 2 1 ack 40 ------- 0 3.0 0.0 6 13
- 0.912224 2 1 ack 40 ------- 0 3.0 0.0 6 13
r 0.962944 2 1 ack 40 ------- 0 3.0 0.0 3 10
+ 0.962944 1 0 ack 40 ------- 0 3.0 0.0 3 10
- 0.962944 1 0 ack 40 ------- 0 3.0 0.0 3 10
r 0.979584 2 1 ack 40 ------- 0 3.0 0.0 4 11
+ 0.979584 1 0 ack 40 ------- 0 3.0 0.0 4 11
- 0.979584 1 0 ack 40 ------- 0 3.0 0.0 4 11
r 0.983008 1 0 ack 40 ------- 0 3.0 0.0 3 10
+ 0.983008 0 1 tcp 1040 ------- 0 0.0 3.0 7 14
- 0.983008 0 1 tcp 1040 ------- 0 0.0 3.0 7 14
+ 0.983008 0 1 tcp 1040 ------- 0 0.0 3.0 8 15
- 0.984672 0 1 tcp 1040 ------- 0 0.0 3.0 8 15
r 0.996224 2 1 ack 40 ------- 0 3.0 0.0 5 12
+ 0.996224 1 0 ack 40 ------- 0 3.0 0.0 5 12
- 0.996224 1 0 ack 40 ------- 0 3.0 0.0 5 12
r 0.999648 1 0 ack 40 ------- 0 3.0 0.0 4 11
+ 0.999648 0 1 tcp 1040 ------- 0 0.0 3.0 9 16
- 0.999648 0 1 tcp 1040 ------- 0 0.0 3.0 9 16
+ 0.999648 0 1 tcp 1040 ------- 0 0.0 3.0 10 17
- 1.001312 0 1 tcp 1040 ------- 0 0.0 3.0 10 17
r 1.004672 0 1 tcp 1040 ------- 0 0.0 3.0 7 14
+ 1.004672 1 2 tcp 1040 ------- 0 0.0 3.0 7 14
- 1.004672 1 2 tcp 1040 ------- 0 0.0 3.0 7 14
r 1.006336 0 1 tcp 1040 ------- 0 0.0 3.0 8 15
+ 1.006336 1 2 tcp 1040 ------- 0 0.0 3.0 8 15
r 1.012864 2 1 ack 40 ------- 0 3.0 0.0 6 13
+ 1.012864 1 0 ack 40 ------- 0 3.0 0.0 6 13
- 1.012864 1 0 ack 40 ------- 0 3.0 0.0 6 13
r 1.016288 1 0 ack 40 ------- 0 3.0 0.0 5 12
+ 1.016288 0 1 tcp 1040 ------- 0 0.0 3.0 11 18
- 1.016288 0 1 tcp 1040 ------- 0 0.0 3.0 11 18
+ 1.016288 0 1 tcp 1040 ------- 0 0.0 3.0 12 19
- 1.017952 0 1 tcp 1040 ------- 0 0.0 3.0 12 19
r 1.021312 0 1 tcp 1040 ------- 0 0.0 3.0 9 16
+ 1.021312 1 2 tcp 1040 ------- 0 0.0 3.0 9 16
- 1.021312 1 2 tcp 1040 ------- 0 0.0 3.0 8 15
r 1.022976 0 1 tcp 1040 ------- 0 0.0 3.0 10 17
+ 1.022976 1 2 tcp 1040 ------- 0 0.0 3.0 10 17
r 1.032928 1 0 ack 40 ------- 0 3.0 0.0 6 13
+ 1.032928 0 1 tcp 1040 ------- 0 0.0 3.0 13 20
- 1.032928 0 1 tcp 1040 ------- 0 0.0 3.0 13 20
+ 1.032928 0 1 tcp 1040 ------- 0 0.0 3.0 14 21
- 1.034592 0 1 tcp 1040 ------- 0 0.0 3.0 14 21
r 1.037952 0 1 tcp 1040 ------- 0 0.0 3.0 11 18
+ 1.037952 1 2 tcp 1040 ------- 0 0.0 3.0 11 18
- 1.037952 1 2 tcp 1040 ------- 0 0.0 3.0 9 16
r 1.039616 0 1 tcp 1040 ------- 0 0.0 3.0 12 19
+ 1.039616 1 2 tcp 1040 ------- 0 0.0 3.0 12 19
r 1.054592 0 1 tcp 1040 ------- 0 0.0 3.0 13 20
+ 1.054592 1 2 tcp 1040 ------- 0 0.0 3.0 13 20
- 1.054592 1 2 tcp 1040 ------- 0 0.0 3.0 10 17
r 1.056256 0 1 tcp 1040 ------- 0 0.0 3.0 14 21
+ 1.056256 1 2 tcp 1040 ------- 0 0.0 3.0 14 21
- 1.071232 1 2 tcp 1040 ------- 0 0.0 3.0 11 18
- 1.087872 1 2 tcp 1040 ------- 0 0.0 3.0 12 19
- 1.104512 1 2 tcp 1040 ------- 0 0.0 3.0 13 20
- 1.121152 1 2 tcp 1040 ------- 0 0.0 3.0 14 21
r 1.121312 1 2 tcp 1040 ------- 0 0.0 3.0 7 14
+ 1.121312 2 3 tcp 1040 ------- 0 0.0 3.0 7 14
- 1.121312 2 3 tcp 1040 ------- 0 0.0 3.0 7 14
r 1.137952 1 2 tcp 1040 ------- 0 0.0 3.0 8 15
+ 1.137952 2 3 tcp 1040 ------- 0 0.0 3.0 8 15
- 1.137952 2 3 tcp 1040 ------- 0 0.0 3.0 8 15
r 1.142976 2 3 tcp 1040 ------- 0 0.0 3.0 7 14
+ 1.142976 3 2 ack 40 ------- 0 3.0 0.0 7 22
- 1.142976 3 2 ack 40 ------- 0 3.0 0.0 7 22
r 1.154592 1 2 tcp 1040 ------- 0 0.0 3.0 9 16
+ 1.154592 2 3 tcp 1040 ------- 0 0.0 3.0 9 16
- 1.154592 2 3 tcp 1040 ------- 0 0.0 3.0 9 16
r 1.159616 2 3 tcp 1040 ------- 0 0.0 3.0 8 15
+ 1.159616 3 2 ack 40 ------- 0 3.0 0.0 8 23
- 1.159616 3 2 ack 40 ------- 0 3.0 0.0 8 23
r 1.16304 3 2 ack 40 ------- 0 3.0 0.0 7 22
+ 1.16304 2 1 ack 40 ------- 0 3.0 0.0 7 22
- 1.16304 2 1 ack 40 ------- 0 3.0 0.0 7 22
r 1.171232 1 2 tcp 1040 ------- 0 0.0 3.0 10 17
+ 1.171232 2 3 tcp 1040 ------- 0 0.0 3.0 10 17
- 1.171232 2 3 tcp 1040 ------- 0 0.0 3.0 10 17
r 1.176256 2 3 tcp 1040 ------- 0 0.0 3.0 9 16
+ 1.176256 3 2 ack 40 ------- 0 3.0 0.0 9 24
- 1.176256 3 2 ack 40 ------- 0 3.0 0.0 9 24
r 1.17968 3 2 ack 40 ------- 0 3.0 0.0 8 23
+ 1.17968 2 1 ack 40 ------- 0 3.0 0.0 8 23
- 1.17968 2 1 ack 40 ------- 0 3.0 0.0 8 23
r 1.187872 1 2 tcp 1040 ------- 0 0.0 3.0 11 18
+ 1.187872 2 3 tcp 1040 ------- 0 0.0 3.0 11 18
- 1.187872 2 3 tcp 1040 ------- 0 0.0 3.0 11 18
r 1.192896 2 3 tcp 1040 ------- 0 0.0 3.0 10 17
+ 1.192896 3 2 ack 40 ------- 0 3.0 0.0 10 25
- 1.192896 3 2 ack 40 ------- 0 3.0 0.0 10 25
r 1.19632 3 2 ack 40 ------- 0 3.0 0.0 9 24
+ 1.19632 2 1 ack 40 ------- 0 3.0 0.0 9 24
- 1.19632 2 1 ack 40 ------- 0 3.0 0.0 9 24
r 1.204512 1 2 tcp 1040 ------- 0 0.0 3.0 12 19
+ 1.204512 2 3 tcp 1040 ------- 0 0.0 3.0 12 19
- 1.204512 2 3 tcp 1040 ------- 0 0.0 3.0 12 19
r 1.209536 2 3 tcp 1040 ------- 0 0.0 3.0 11 18
+ 1.209536 3 2 ack 40 ------- 0 3.0 0.0 11 26
- 1.209536 3 2 ack 40 ------- 0 3.0 0.0 11 26
r 1.21296 3 2 ack 40 ------- 0 3.0 0.0 10 25
+ 1.21296 2 1 ack 40 ------- 0 3.0 0.0 10 25
- 1.21296 2 1 ack 40 ------- 0 3.0 0.0 10 25
r 1.221152 1 2 tcp 1040 ------- 0 0.0 3.0 13 20
+ 1.221152 2 3 tcp 1040 ------- 0 0.0 3.0 13 20
- 1.221152 2 3 tcp 1040 ------- 0 0.0 3.0 13 20
r 1.226176 2 3 tcp 1040 ------- 0 0.0 3.0 12 19
+ 1.226176 3 2 ack 40 ------- 0 3.0 0.0 12 27
- 1.226176 3 2 ack 40 ------- 0 3.0 0.0 12 27
r 1.2296 3 2 ack 40 ------- 0 3.0 0.0 11 26
+ 1.2296 2 1 ack 40 ------- 0 3.0 0.0 11 26
- 1.2296 2 1 ack 40 ------- 0 3.0 0.0 11 26
r 1.237792 1 2 tcp 1040 ------- 0 0.0 3.0 14 21
+ 1.237792 2 3 tcp 1040 ------- 0 0.0 3.0 14 21
- 1.237792 2 3 tcp 1040 ------- 0 0.0 3.0 14 21
r 1.242816 2 3 tcp 1040 ------- 0 0.0 3.0 13 20
+ 1.242816 3 2 ack 40 ------- 0 3.0 0.0 13 28
- 1.242816 3 2 ack 40 ------- 0 3.0 0.0 13 28
r 1.24624 3 2 ack 40 ------- 0 3.0 0.0 12 27
+ 1.24624 2 1 ack 40 ------- 0 3.0 0.0 12 27
- 1.24624 2 1 ack 40 ------- 0 3.0 0.0 12 27
r 1.259456 2 3 tcp 1040 ------- 0 0.0 3.0 14 21
+ 1.259456 3 2 ack 40 ------- 0 3.0 0.0 14 29
- 1.259456 3 2 ack 40 ------- 0 3.0 0.0 14 29
r 1.26288 3 2 ack 40 ------- 0 3.0 0.0 13 28
+ 1.26288 2 1 ack 40 ------- 0 3.0 0.0 13 28
- 1.26288 2 1 ack 40 ------- 0 3.0 0.0 13 28
r 1.26368 2 1 ack 40 ------- 0 3.0 0.0 7 22
+ 1.26368 1 0 ack 40 ------- 0 3.0 0.0 7 22
- 1.26368 1 0 ack 40 ------- 0 3.0 0.0 7 22
r 1.27952 3 2 ack 40 ------- 0 3.0 0.0 14 29
+ 1.27952 2 1 ack 40 ------- 0 3.0 0.0 14 29
- 1.27952 2 1 ack 40 ------- 0 3.0 0.0 14 29
r 1.28032 2 1 ack 40 ------- 0 3.0 0.0 8 23
+ 1.28032 1 0 ack 40 ------- 0 3.0 0.0 8 23
- 1.28032 1 0 ack 40 ------- 0 3.0 0.0 8 23
r 1.283744 1 0 ack 40 ------- 0 3.0 0.0 7 22
+ 1.283744 0 1 tcp 1040 ------- 0 0.0 3.0 15 30
- 1.283744 0 1 tcp 1040 ------- 0 0.0 3.0 15 30
+ 1.283744 0 1 tcp 1040 ------- 0 0.0 3.0 16 31
- 1.285408 0 1 tcp 1040 ------- 0 0.0 3.0 16 31
r 1.29696 2 1 ack 40 ------- 0 3.0 0.0 9 24
+ 1.29696 1 0 ack 40 ------- 0 3.0 0.0 9 24
- 1.29696 1 0 ack 40 ------- 0 3.0 0.0 9 24
r 1.300384 1 0 ack 40 ------- 0 3.0 0.0 8 23
+ 1.300384 0 1 tcp 1040 ------- 0 0.0 3.0 17 32
- 1.300384 0 1 tcp 1040 ------- 0 0.0 3.0 17 32
+ 1.300384 0 1 tcp 1040 ------- 0 0.0 3.0 18 33
- 1.302048 0 1 tcp 1040 ------- 0 0.0 3.0 18 33
r 1.305408 0 1 tcp 1040 ------- 0 0.0 3.0 15 30
+ 1.305408 1 2 tcp 1040 ------- 0 0.0 3.0 15 30
- 1.305408 1 2 tcp 1040 ------- 0 0.0 3.0 15 30
r 1.307072 0 1 tcp 1040 ------- 0 0.0 3.0 16 31
+ 1.307072 1 2 tcp 1040 ------- 0 0.0 3.0 16 31
r 1.3136 2 1 ack 40 ------- 0 3.0 0.0 10 25
+ 1.3136 1 0 ack 40 ------- 0 3.0 0.0 10 25
- 1.3136 1 0 ack 40 ------- 0 3.0 0.0 10 25
r 1.317024 1 0 ack 40 ------- 0 3.0 0.0 9 24
+ 1.317024 0 1 tcp 1040 ------- 0 0.0 3.0 19 34
- 1.317024 0 1 tcp 1040 ------- 0 0.0 3.0 19 34
+ 1.317024 0 1 tcp 1040 ------- 0 0.0 3.0 20 35
- 1.318688 0 1 tcp 1040 ------- 0 0.0 3.0 20 35
r 1.322048 0 1 tcp 1040 ------- 0 0.0 3.0 17 32
+ 1.322048 1 2 tcp 1040 ------- 0 0.0 3.0 17 32
- 1.322048 1 2 tcp 1040 ------- 0 0.0 3.0 16 31
r 1.323712 0 1 tcp 1040 ------- 0 0.0 3.0 18 33
+ 1.323712 1 2 tcp 1040 ------- 0 0.0 3.0 18 33
r 1.33024 2 1 ack 40 ------- 0 3.0 0.0 11 26
+ 1.33024 1 0 ack 40 ------- 0 3.0 0.0 11 26
- 1.33024 1 0 ack 40 ------- 0 3.0 0.0 11 26
r 1.333664 1 0 ack 40 ------- 0 3.0 0.0 10 25
+ 1.333664 0 1 tcp 1040 ------- 0 0.0 3.0 21 36
- 1.333664 0 1 tcp 1040 ------- 0 0.0 3.0 21 36
+ 1.333664 0 1 tcp 1040 ------- 0 0.0 3.0 22 37
- 1.335328 0 1 tcp 1040 ------- 0 0.0 3.0 22 37
r 1.338688 0 1 tcp 1040 ------- 0 0.0 3.0 19 34
+ 1.338688 1 2 tcp 1040 ------- 0 0.0 3.0 19 34
- 1.338688 1 2 tcp 1040 ------- 0 0.0 3.0 17 32
r 1.340352 0 1 tcp 1040 ------- 0 0.0 3.0 20 35
+ 1.340352 1 2 tcp 1040 ------- 0 0.0 3.0 20 35
r 1.34688 2 1 ack 40 ------- 0 3.0 0.0 12 27
+ 1.34688 1 0 ack 40 ------- 0 3.0 0.0 12 27
- 1.34688 1 0 ack 40 ------- 0 3.0 0.0 12 27
r 1.350304 1 0 ack 40 ------- 0 3.0 0.0 11 26
+ 1.350304 0 1 tcp 1040 ------- 0 0.0 3.0 23 38
- 1.350304 0 1 tcp 1040 ------- 0 0.0 3.0 23 38
+ 1.350304 0 1 tcp 1040 ------- 0 0.0 3.0 24 39
- 1.351968 0 1 tcp 1040 ------- 0 0.0 3.0 24 39
r 1.355328 0 1 tcp 1040 ------- 0 0.0 3.0 21 36
+ 1.355328 1 2 tcp 1040 ------- 0 0.0 3.0 21 36
- 1.355328 1 2 tcp 1040 ------- 0 0.0 3.0 18 33
r 1.356992 0 1 tcp 1040 ------- 0 0.0 3.0 22 37
+ 1.356992 1 2 tcp 1040 ------- 0 0.0 3.0 22 37
r 1.36352 2 1 ack 40 ------- 0 3.0 0.0 13 28
+ 1.36352 1 0 ack 40 ------- 0 3.0 0.0 13 28
- 1.36352 1 0 ack 40 ------- 0 3.0 0.0 13 28
r 1.366944 1 0 ack 40 ------- 0 3.0 0.0 12 27
+ 1.366944 0 1 tcp 1040 ------- 0 0.0 3.0 25 40
- 1.366944 0 1 tcp 1040 ------- 0 0.0 3.0 25 40
+ 1.366944 0 1 tcp 1040 ------- 0 0.0 3.0 26 41
- 1.368608 0 1 tcp 1040 ------- 0 0.0 3.0 26 41
r 1.371968 0 1 tcp 1040 ------- 0 0.0 3.0 23 38
+ 1.371968 1 2 tcp 1040 ------- 0 0.0 3.0 23 38
d 1.371968 1 2 tcp 1040 ------- 0 0.0 3.0 23 38
- 1.371968 1 2 tcp 1040 ------- 0 0.0 3.0 19 34
r 1.373632 0 1 tcp 1040 ------- 0 0.0 3.0 24 39
+ 1.373632 1 2 tcp 1040 ------- 0 0.0 3.0 24 39
r 1.38016 2 1 ack 40 ------- 0 3.0 0.0 14 29
+ 1.38016 1 0 ack 40 ------- 0 3.0 0.0 14 29
- 1.38016 1 0 ack 40 ------- 0 3.0 0.0 14 29
r 1.383584 1 0 ack 40 ------- 0 3.0 0.0 13 28
+ 1.383584 0 1 tcp 1040 ------- 0 0.0 3.0 27 42
- 1.383584 0 1 tcp 1040 ------- 0 0.0 3.0 27 42
+ 1.383584 0 1 tcp 1040 ------- 0 0.0 3.0 28 43
- 1.385248 0 1 tcp 1040 ------- 0 0.0 3.0 28 43
r 1.388608 0 1 tcp 1040 ------- 0 0.0 3.0 25 40
+ 1.388608 1 2 tcp 1040 ------- 0 0.0 3.0 25 40
d 1.388608 1 2 tcp 1040 ------- 0 0.0 3.0 25 40
- 1.388608 1 2 tcp 1040 ------- 0 0.0 3.0 20 35
r 1.390272 0 1 tcp 1040 ------- 0 0.0 3.0 26 41
+ 1.390272 1 2 tcp 1040 ------- 0 0.0 3.0 26 41
r 1.400224 1 0 ack 40 ------- 0 3.0 0.0 14 29
+ 1.400224 0 1 tcp 1040 ------- 0 0.0 3.0 29 44
- 1.400224 0 1 tcp 1040 ------- 0 0.0 3.0 29 44
+ 1.400224 0 1 tcp 1040 ------- 0 0.0 3.0 30 45
- 1.401888 0 1 tcp 1040 ------- 0 0.0 3.0 30 45
r 1.405248 0 1 tcp 1040 ------- 0 0.0 3.0 27 42
+ 1.405248 1 2 tcp 1040 ------- 0 0.0 3.0 27 42
d 1.405248 1 2 tcp 1040 ------- 0 0.0 3.0 27 42
- 1.405248 1 2 tcp 1040 ------- 0 0.0 3.0 21 36
r 1.406912 0 1 tcp 1040 ------- 0 0.0 3.0 28 43
+ 1.406912 1 2 tcp 1040 ------- 0 0.0 3.0 28 43
r 1.421888 0 1 tcp 1040 ------- 0 0.0 3.0 29 44
+ 1.421888 1 2 tcp 1040 ------- 0 0.0 3.0 29 44
d 1.421888 1 2 tcp 1040 ------- 0 0.0 3.0 29 44
- 1.421888 1 2 tcp 1040 ------- 0 0.0 3.0 22 37
r 1.422048 1 2 tcp 1040 ------- 0 0.0 3.0 15 30
+ 1.422048 2 3 tcp 1040 ------- 0 0.0 3.0 15 30
- 1.422048 2 3 tcp 1040 ------- 0 0.0 3.0 15 30
r 1.423552 0 1 tcp 1040 ------- 0 0.0 3.0 30 45
+ 1.423552 1 2 tcp 1040 ------- 0 0.0 3.0 30 45
- 1.438528 1 2 tcp 1040 ------- 0 0.0 3.0 24 39
r 1.438688 1 2 tcp 1040 ------- 0 0.0 3.0 16 31
+ 1.438688 2 3 tcp 1040 ------- 0 0.0 3.0 16 31
- 1.438688 2 3 tcp 1040 ------- 0 0.0 3.0 16 31
r 1.443712 2 3 tcp 1040 ------- 0 0.0 3.0 15 30
+ 1.443712 3 2 ack 40 ------- 0 3.0 0.0 15 46
- 1.443712 3 2 ack 40 ------- 0 3.0 0.0 15 46
- 1.455168 1 2 tcp 1040 ------- 0 0.0 3.0 26 41
r 1.455328 1 2 tcp 1040 ------- 0 0.0 3.0 17 32
+ 1.455328 2 3 tcp 1040 ------- 0 0.0 3.0 17 32
- 1.455328 2 3 tcp 1040 ------- 0 0.0 3.0 17 32
r 1.460352 2 3 tcp 1040 ------- 0 0.0 3.0 16 31
+ 1.460352 3 2 ack 40 ------- 0 3.0 0.0 16 47
- 1.460352 3 2 ack 40 ------- 0 3.0 0.0 16 47
r 1.463776 3 2 ack 40 ------- 0 3.0 0.0 15 46
+ 1.463776 2 1 ack 40 ------- 0 3.0 0.0 15 46
- 1.463776 2 1 ack 40 ------- 0 3.0 0.0 15 46
- 1.471808 1 2 tcp 1040 ------- 0 0.0 3.0 28 43
r 1.471968 1 2 tcp 1040 ------- 0 0.0 3.0 18 33
+ 1.471968 2 3 tcp 1040 ------- 0 0.0 3.0 18 33
- 1.471968 2 3 tcp 1040 ------- 0 0.0 3.0 18 33
r 1.476992 2 3 tcp 1040 ------- 0 0.0 3.0 17 32
+ 1.476992 3 2 ack 40 ------- 0 3.0 0.0 17 48
- 1.476992 3 2 ack 40 ------- 0 3.0 0.0 17 48
r 1.480416 3 2 ack 40 ------- 0 3.0 0.0 16 47
+ 1.480416 2 1 ack 40 ------- 0 3.0 0.0 16 47
- 1.480416 2 1 ack 40 ------- 0 3.0 0.0 16 47
- 1.488448 1 2 tcp 1040 ------- 0 0.0 3.0 30 45
r 1.488608 1 2 tcp 1040 ------- 0 0.0 3.0 19 34
+ 1.488608 2 3 tcp 1040 ------- 0 0.0 3.0 19 34
- 1.488608 2 3 tcp 1040 ------- 0 0.0 3.0 19 34
r 1.493632 2 3 tcp 1040 ------- 0 0.0 3.0 18 33
+ 1.493632 3 2 ack 40 ------- 0 3.0 0.0 18 49
- 1.493632 3 2 ack 40 ------- 0 3.0 0.0 18 49
r 1.497056 3 2 ack 40 ------- 0 3.0 0.0 17 48
+ 1.497056 2 1 ack 40 ------- 0 3.0 0.0 17 48
- 1.497056 2 1 ack 40 ------- 0 3.0 0.0 17 48
r 1.505248 1 2 tcp 1040 ------- 0 0.0 3.0 20 35
+ 1.505248 2 3 tcp 1040 ------- 0 0.0 3.0 20 35
- 1.505248 2 3 tcp 1040 ------- 0 0.0 3.0 20 35
r 1.510272 2 3 tcp 1040 ------- 0 0.0 3.0 19 34
+ 1.510272 3 2 ack 40 ------- 0 3.0 0.0 19 50
- 1.510272 3 2 ack 40 ------- 0 3.0 0.0 19 50
r 1.513696 3 2 ack 40 ------- 0 3.0 0.0 18 49
+ 1.513696 2 1 ack 40 ------- 0 3.0 0.0 18 49
- 1.513696 2 1 ack 40 ------- 0 3.0 0.0 18 49
r 1.521888 1 2 tcp 1040 ------- 0 0.0 3.0 21 36
+ 1.521888 2 3 tcp 1040 ------- 0 0.0 3.0 21 36
- 1.521888 2 3 tcp 1040 ------- 0 0.0 3.0 21 36
r 1.526912 2 3 tcp 1040 ------- 0 0.0 3.0 20 35
+ 1.526912 3 2 ack 40 ------- 0 3.0 0.0 20 51
- 1.526912 3 2 ack 40 ------- 0 3.0 0.0 20 51
r 1.530336 3 2 ack 40 ------- 0 3.0 0.0 19 50
+ 1.530336 2 1 ack 40 ------- 0 3.0 0.0 19 50
- 1.530336 2 1 ack 40 ------- 0 3.0 0.0 19 50
r 1.538528 1 2 tcp 1040 ------- 0 0.0 3.0 22 37
+ 1.538528 2 3 tcp 1040 ------- 0 0.0 3.0 22 37
- 1.538528 2 3 tcp 1040 ------- 0 0.0 3.0 22 37
r 1.543552 2 3 tcp 1040 ------- 0 0.0 3.0 21 36
+ 1.543552 3 2 ack 40 ------- 0 3.0 0.0 21 52
- 1.543552 3 2 ack 40 ------- 0 3.0 0.0 21 52
r 1.546976 3 2 ack 40 ------- 0 3.0 0.0 20 51
+ 1.546976 2 1 ack 40 ------- 0 3.0 0.0 20 51
- 1.546976 2 1 ack 40 ------- 0 3.0 0.0 20 51
r 1.555168 1 2 tcp 1040 ------- 0 0.0 3.0 24 39
+ 1.555168 2 3 tcp 1040 ------- 0 0.0 3.0 24 39
- 1.555168 2 3 tcp 1040 ------- 0 0.0 3.0 24 39
r 1.560192 2 3 tcp 1040 ------- 0 0.0 3.0 22 37
+ 1.560192 3 2 ack 40 ------- 0 3.0 0.0 22 53
- 1.560192 3 2 ack 40 ------- 0 3.0 0.0 22 53
r 1.563616 3 2 ack 40 ------- 0 3.0 0.0 21 52
+ 1.563616 2 1 ack 40 ------- 0 3.0 0.0 21 52
- 1.563616 2 1 ack 40 ------- 0 3.0 0.0 21 52
r 1.564416 2 1 ack 40 ------- 0 3.0 0.0 15 46
+ 1.564416 1 0 ack 40 ------- 0 3.0 0.0 15 46
- 1.564416 1 0 ack 40 ------- 0 3.0 0.0 15 46
r 1.571808 1 2 tcp 1040 ------- 0 0.0 3.0 26 41
+ 1.571808 2 3 tcp 1040 ------- 0 0.0 3.0 26 41
- 1.571808 2 3 tcp 1040 ------- 0 0.0 3.0 26 41
r 1.576832 2 3 tcp 1040 ------- 0 0.0 3.0 24 39
+ 1.576832 3 2 ack 40 ------- 0 3.0 0.0 22 54
- 1.576832 3 2 ack 40 ------- 0 3.0 0.0 22 54
r 1.580256 3 2 ack 40 ------- 0 3.0 0.0 22 53
+ 1.580256 2 1 ack 40 ------- 0 3.0 0.0 22 53
- 1.580256 2 1 ack 40 ------- 0 3.0 0.0 22 53
r 1.581056 2 1 ack 40 ------- 0 3.0 0.0 16 47
+ 1.581056 1 0 ack 40 ------- 0 3.0 0.0 16 47
- 1.581056 1 0 ack 40 ------- 0 3.0 0.0 16 47
r 1.58448 1 0 ack 40 ------- 0 3.0 0.0 15 46
+ 1.58448 0 1 tcp 1040 ------- 0 0.0 3.0 31 55
- 1.58448 0 1 tcp 1040 ------- 0 0.0 3.0 31 55
+ 1.58448 0 1 tcp 1040 ------- 0 0.0 3.0 32 56
- 1.586144 0 1 tcp 1040 ------- 0 0.0 3.0 32 56
r 1.588448 1 2 tcp 1040 ------- 0 0.0 3.0 28 43
+ 1.588448 2 3 tcp 1040 ------- 0 0.0 3.0 28 43
- 1.588448 2 3 tcp 1040 ------- 0 0.0 3.0 28 43
r 1.593472 2 3 tcp 1040 ------- 0 0.0 3.0 26 41
+ 1.593472 3 2 ack 40 ------- 0 3.0 0.0 22 57
- 1.593472 3 2 ack 40 ------- 0 3.0 0.0 22 57
r 1.596896 3 2 ack 40 ------- 0 3.0 0.0 22 54
+ 1.596896 2 1 ack 40 ------- 0 3.0 0.0 22 54
- 1.596896 2 1 ack 40 ------- 0 3.0 0.0 22 54
r 1.597696 2 1 ack 40 ------- 0 3.0 0.0 17 48
+ 1.597696 1 0 ack 40 ------- 0 3.0 0.0 17 48
- 1.597696 1 0 ack 40 ------- 0 3.0 0.0 17 48
r 1.60112 1 0 ack 40 ------- 0 3.0 0.0 16 47
+ 1.60112 0 1 tcp 1040 ------- 0 0.0 3.0 33 58
- 1.60112 0 1 tcp 1040 ------- 0 0.0 3.0 33 58
+ 1.60112 0 1 tcp 1040 ------- 0 0.0 3.0 34 59
- 1.602784 0 1 tcp 1040 ------- 0 0.0 3.0 34 59
r 1.605088 1 2 tcp 1040 ------- 0 0.0 3.0 30 45
+ 1.605088 2 3 tcp 1040 ------- 0 0.0 3.0 30 45
- 1.605088 2 3 tcp 1040 ------- 0 0.0 3.0 30 45
r 1.606144 0 1 tcp 1040 ------- 0 0.0 3.0 31 55
+ 1.606144 1 2 tcp 1040 ------- 0 0.0 3.0 31 55
- 1.606144 1 2 tcp 1040 ------- 0 0.0 3.0 31 55
r 1.607808 0 1 tcp 1040 ------- 0 0.0 3.0 32 56
+ 1.607808 1 2 tcp 1040 ------- 0 0.0 3.0 32 56
r 1.610112 2 3 tcp 1040 ------- 0 0.0 3.0 28 43
+ 1.610112 3 2 ack 40 ------- 0 3.0 0.0 22 60
- 1.610112 3 2 ack 40 ------- 0 3.0 0.0 22 60
r 1.613536 3 2 ack 40 ------- 0 3.0 0.0 22 57
+ 1.613536 2 1 ack 40 ------- 0 3.0 0.0 22 57
- 1.613536 2 1 ack 40 ------- 0 3.0 0.0 22 57
r 1.614336 2 1 ack 40 ------- 0 3.0 0.0 18 49
+ 1.614336 1 0 ack 40 ------- 0 3.0 0.0 18 49
- 1.614336 1 0 ack 40 ------- 0 3.0 0.0 18 49
r 1.61776 1 0 ack 40 ------- 0 3.0 0.0 17 48
+ 1.61776 0 1 tcp 1040 ------- 0 0.0 3.0 35 61
- 1.61776 0 1 tcp 1040 ------- 0 0.0 3.0 35 61
+ 1.61776 0 1 tcp 1040 ------- 0 0.0 3.0 36 62
- 1.619424 0 1 tcp 1040 ------- 0 0.0 3.0 36 62
r 1.622784 0 1 tcp 1040 ------- 0 0.0 3.0 33 58
+ 1.622784 1 2 tcp 1040 ------- 0 0.0 3.0 33 58
- 1.622784 1 2 tcp 1040 ------- 0 0.0 3.0 32 56
r 1.624448 0 1 tcp 1040 ------- 0 0.0 3.0 34 59
+ 1.624448 1 2 tcp 1040 ------- 0 0.0 3.0 34 59
r 1.626752 2 3 tcp 1040 ------- 0 0.0 3.0 30 45
+ 1.626752 3 2 ack 40 ------- 0 3.0 0.0 22 63
- 1.626752 3 2 ack 40 ------- 0 3.0 0.0 22 63
r 1.630176 3 2 ack 40 ------- 0 3.0 0.0 22 60
+ 1.630176 2 1 ack 40 ------- 0 3.0 0.0 22 60
- 1.630176 2 1 ack 40 ------- 0 3.0 0.0 22 60
r 1.630976 2 1 ack 40 ------- 0 3.0 0.0 19 50
+ 1.630976 1 0 ack 40 ------- 0 3.0 0.0 19 50
- 1.630976 1 0 ack 40 ------- 0 3.0 0.0 19 50
r 1.6344 1 0 ack 40 ------- 0 3.0 0.0 18 49
+ 1.6344 0 1 tcp 1040 ------- 0 0.0 3.0 37 64
- 1.6344 0 1 tcp 1040 ------- 0 0.0 3.0 37 64
+ 1.6344 0 1 tcp 1040 ------- 0 0.0 3.0 38 65
- 1.636064 0 1 tcp 1040 ------- 0 0.0 3.0 38 65
r 1.639424 0 1 tcp 1040 ------- 0 0.0 3.0 35 61
+ 1.639424 1 2 tcp 1040 ------- 0 0.0 3.0 35 61
- 1.639424 1 2 tcp 1040 ------- 0 0.0 3.0 33 58
r 1.641088 0 1 tcp 1040 ------- 0 0.0 3.0 36 62
+ 1.641088 1 2 tcp 1040 ------- 0 0.0 3.0 36 62
r 1.646816 3 2 ack 40 ------- 0 3.0 0.0 22 63
+ 1.646816 2 1 ack 40 ------- 0 3.0 0.0 22 63
- 1.646816 2 1 ack 40 ------- 0 3.0 0.0 22 63
r 1.647616 2 1 ack 40 ------- 0 3.0 0.0 20 51
+ 1.647616 1 0 ack 40 ------- 0 3.0 0.0 20 51
- 1.647616 1 0 ack 40 ------- 0 3.0 0.0 20 51
r 1.65104 1 0 ack 40 ------- 0 3.0 0.0 19 50
+ 1.65104 0 1 tcp 1040 ------- 0 0.0 3.0 39 66
- 1.65104 0 1 tcp 1040 ------- 0 0.0 3.0 39 66
r 1.656064 0 1 tcp 1040 ------- 0 0.0 3.0 37 64
+ 1.656064 1 2 tcp 1040 ------- 0 0.0 3.0 37 64
- 1.656064 1 2 tcp 1040 ------- 0 0.0 3.0 34 59
r 1.657728 0 1 tcp 1040 ------- 0 0.0 3.0 38 65
+ 1.657728 1 2 tcp 1040 ------- 0 0.0 3.0 38 65
r 1.664256 2 1 ack 40 ------- 0 3.0 0.0 21 52
+ 1.664256 1 0 ack 40 ------- 0 3.0 0.0 21 52
- 1.664256 1 0 ack 40 ------- 0 3.0 0.0 21 52
r 1.66768 1 0 ack 40 ------- 0 3.0 0.0 20 51
+ 1.66768 0 1 tcp 1040 ------- 0 0.0 3.0 40 67
- 1.66768 0 1 tcp 1040 ------- 0 0.0 3.0 40 67
r 1.672704 0 1 tcp 1040 ------- 0 0.0 3.0 39 66
+ 1.672704 1 2 tcp 1040 ------- 0 0.0 3.0 39 66
d 1.672704 1 2 tcp 1040 ------- 0 0.0 3.0 39 66
- 1.672704 1 2 tcp 1040 ------- 0 0.0 3.0 35 61
r 1.680896 2 1 ack 40 ------- 0 3.0 0.0 22 53
+ 1.680896 1 0 ack 40 ------- 0 3.0 0.0 22 53
- 1.680896 1 0 ack 40 ------- 0 3.0 0.0 22 53
r 1.68432 1 0 ack 40 ------- 0 3.0 0.0 21 52
+ 1.68432 0 1 tcp 1040 ------- 0 0.0 3.0 41 68
- 1.68432 0 1 tcp 1040 ------- 0 0.0 3.0 41 68
r 1.689344 0 1 tcp 1040 ------- 0 0.0 3.0 40 67
+ 1.689344 1 2 tcp 1040 ------- 0 0.0 3.0 40 67
- 1.689344 1 2 tcp 1040 ------- 0 0.0 3.0 36 62
r 1.697536 2 1 ack 40 ------- 0 3.0 0.0 22 54
+ 1.697536 1 0 ack 40 ------- 0 3.0 0.0 22 54
- 1.697536 1 0 ack 40 ------- 0 3.0 0.0 22 54
r 1.70096 1 0 ack 40 ------- 0 3.0 0.0 22 53
+ 1.70096 0 1 tcp 1040 ------- 0 0.0 3.0 42 69
- 1.70096 0 1 tcp 1040 ------- 0 0.0 3.0 42 69
r 1.705984 0 1 tcp 1040 ------- 0 0.0 3.0 41 68
+ 1.705984 1 2 tcp 1040 ------- 0 0.0 3.0 41 68
- 1.705984 1 2 tcp 1040 ------- 0 0.0 3.0 37 64
r 1.714176 2 1 ack 40 ------- 0 3.0 0.0 22 57
+ 1.714176 1 0 ack 40 ------- 0 3.0 0.0 22 57
- 1.714176 1 0 ack 40 ------- 0 3.0 0.0 22 57
r 1.7176 1 0 ack 40 ------- 0 3.0 0.0 22 54
r 1.722624 0 1 tcp 1040 ------- 0 0.0 3.0 42 69
+ 1.722624 1 2 tcp 1040 ------- 0 0.0 3.0 42 69
- 1.722624 1 2 tcp 1040 ------- 0 0.0 3.0 38 65
r 1.722784 1 2 tcp 1040 ------- 0 0.0 3.0 31 55
+ 1.722784 2 3 tcp 1040 ------- 0 0.0 3.0 31 55
- 1.722784 2 3 tcp 1040 ------- 0 0.0 3.0 31 55
r 1.730816 2 1 ack 40 ------- 0 3.0 0.0 22 60
+ 1.730816 1 0 ack 40 ------- 0 3.0 0.0 22 60
- 1.730816 1 0 ack 40 ------- 0 3.0 0.0 22 60
r 1.73424 1 0 ack 40 ------- 0 3.0 0.0 22 57
- 1.739264 1 2 tcp 1040 ------- 0 0.0 3.0 40 67
r 1.739424 1 2 tcp 1040 ------- 0 0.0 3.0 32 56
+ 1.739424 2 3 tcp 1040 ------- 0 0.0 3.0 32 56
- 1.739424 2 3 tcp 1040 ------- 0 0.0 3.0 32 56
r 1.744448 2 3 tcp 1040 ------- 0 0.0 3.0 31 55
+ 1.744448 3 2 ack 40 ------- 0 3.0 0.0 22 70
- 1.744448 3 2 ack 40 ------- 0 3.0 0.0 22 70
r 1.747456 2 1 ack 40 ------- 0 3.0 0.0 22 63
+ 1.747456 1 0 ack 40 ------- 0 3.0 0.0 22 63
- 1.747456 1 0 ack 40 ------- 0 3.0 0.0 22 63
r 1.75088 1 0 ack 40 ------- 0 3.0 0.0 22 60
+ 1.75088 0 1 tcp 1040 ---A--- 0 0.0 3.0 23 71
- 1.75088 0 1 tcp 1040 ---A--- 0 0.0 3.0 23 71
- 1.755904 1 2 tcp 1040 ------- 0 0.0 3.0 41 68
r 1.756064 1 2 tcp 1040 ------- 0 0.0 3.0 33 58
+ 1.756064 2 3 tcp 1040 ------- 0 0.0 3.0 33 58
- 1.756064 2 3 tcp 1040 ------- 0 0.0 3.0 33 58
r 1.761088 2 3 tcp 1040 ------- 0 0.0 3.0 32 56
+ 1.761088 3 2 ack 40 ------- 0 3.0 0.0 22 72
- 1.761088 3 2 ack 40 ------- 0 3.0 0.0 22 72
r 1.764512 3 2 ack 40 ------- 0 3.0 0.0 22 70
+ 1.764512 2 1 ack 40 ------- 0 3.0 0.0 22 70
- 1.764512 2 1 ack 40 ------- 0 3.0 0.0 22 70
r 1.76752 1 0 ack 40 ------- 0 3.0 0.0 22 63
r 1.772544 0 1 tcp 1040 ---A--- 0 0.0 3.0 23 71
+ 1.772544 1 2 tcp 1040 ---A--- 0 0.0 3.0 23 71
- 1.772544 1 2 tcp 1040 ------- 0 0.0 3.0 42 69
r 1.772704 1 2 tcp 1040 ------- 0 0.0 3.0 34 59
+ 1.772704 2 3 tcp 1040 ------- 0 0.0 3.0 34 59
- 1.772704 2 3 tcp 1040 ------- 0 0.0 3.0 34 59
r 1.777728 2 3 tcp 1040 ------- 0 0.0 3.0 33 58
+ 1.777728 3 2 ack 40 ------- 0 3.0 0.0 22 73
- 1.777728 3 2 ack 40 ------- 0 3.0 0.0 22 73
r 1.781152 3 2 ack 40 ------- 0 3.0 0.0 22 72
+ 1.781152 2 1 ack 40 ------- 0 3.0 0.0 22 72
- 1.781152 2 1 ack 40 ------- 0 3.0 0.0 22 72
- 1.789184 1 2 tcp 1040 ---A--- 0 0.0 3.0 23 71
r 1.789344 1 2 tcp 1040 ------- 0 0.0 3.0 35 61
+ 1.789344 2 3 tcp 1040 ------- 0 0.0 3.0 35 61
- 1.789344 2 3 tcp 1040 ------- 0 0.0 3.0 35 61
r 1.794368 2 3 tcp 1040 ------- 0 0.0 3.0 34 59
+ 1.794368 3 2 ack 40 ------- 0 3.0 0.0 22 74
- 1.794368 3 2 ack 40 ------- 0 3.0 0.0 22 74
r 1.797792 3 2 ack 40 ------- 0 3.0 0.0 22 73
+ 1.797792 2 1 ack 40 ------- 0 3.0 0.0 22 73
- 1.797792 2 1 ack 40 ------- 0 3.0 0.0 22 73
r 1.805984 1 2 tcp 1040 ------- 0 0.0 3.0 36 62
+ 1.805984 2 3 tcp 1040 ------- 0 0.0 3.0 36 62
- 1.805984 2 3 tcp 1040 ------- 0 0.0 3.0 36 62
r 1.811008 2 3 tcp 1040 ------- 0 0.0 3.0 35 61
+ 1.811008 3 2 ack 40 ------- 0 3.0 0.0 22 75
- 1.811008 3 2 ack 40 ------- 0 3.0 0.0 22 75
r 1.814432 3 2 ack 40 ------- 0 3.0 0.0 22 74
+ 1.814432 2 1 ack 40 ------- 0 3.0 0.0 22 74
- 1.814432 2 1 ack 40 ------- 0 3.0 0.0 22 74
r 1.822624 1 2 tcp 1040 ------- 0 0.0 3.0 37 64
+ 1.822624 2 3 tcp 1040 ------- 0 0.0 3.0 37 64
- 1.822624 2 3 tcp 1040 ------- 0 0.0 3.0 37 64
r 1.827648 2 3 tcp 1040 ------- 0 0.0 3.0 36 62
+ 1.827648 3 2 ack 40 ------- 0 3.0 0.0 22 76
- 1.827648 3 2 ack 40 ------- 0 3.0 0.0 22 76
r 1.831072 3 2 ack 40 ------- 0 3.0 0.0 22 75
+ 1.831072 2 1 ack 40 ------- 0 3.0 0.0 22 75
- 1.831072 2 1 ack 40 ------- 0 3.0 0.0 22 75
r 1.839264 1 2 tcp 1040 ------- 0 0.0 3.0 38 65
+ 1.839264 2 3 tcp 1040 ------- 0 0.0 3.0 38 65
- 1.839264 2 3 tcp 1040 ------- 0 0.0 3.0 38 65
r 1.844288 2 3 tcp 1040 ------- 0 0.0 3.0 37 64
+ 1.844288 3 2 ack 40 ------- 0 3.0 0.0 22 77
- 1.844288 3 2 ack 40 ------- 0 3.0 0.0 22 77
r 1.847712 3 2 ack 40 ------- 0 3.0 0.0 22 76
+ 1.847712 2 1 ack 40 ------- 0 3.0 0.0 22 76
- 1.847712 2 1 ack 40 ------- 0 3.0 0.0 22 76
r 1.855904 1 2 tcp 1040 ------- 0 0.0 3.0 40 67
+ 1.855904 2 3 tcp 1040 ------- 0 0.0 3.0 40 67
- 1.855904 2 3 tcp 1040 ------- 0 0.0 3.0 40 67
r 1.860928 2 3 tcp 1040 ------- 0 0.0 3.0 38 65
+ 1.860928 3 2 ack 40 ------- 0 3.0 0.0 22 78
- 1.860928 3 2 ack 40 ------- 0 3.0 0.0 22 78
r 1.864352 3 2 ack 40 ------- 0 3.0 0.0 22 77
+ 1.864352 2 1 ack 40 ------- 0 3.0 0.0 22 77
- 1.864352 2 1 ack 40 ------- 0 3.0 0.0 22 77
r 1.865152 2 1 ack 40 ------- 0 3.0 0.0 22 70
+ 1.865152 1 0 ack 40 ------- 0 3.0 0.0 22 70