+ 0.1 0 1 tcp 1000 ------- 0 0.0 3.0 0 0
- 0.1 0 1 tcp 1000 ------- 0 0.0 3.0 0 0
r 0.1216 0 1 tcp 1000 ------- 0 0.0 3.0 0 0
+ 0.1216 1 2 tcp 1000 ------- 0 0.0 3.0 0 0
- 0.1216 1 2 tcp 1000 ------- 0 0.0 3.0 0 0
r 0.2376 1 2 tcp 1000 ------- 0 0.0 3.0 0 0
+ 0.2376 2 3 tcp 1000 ------- 0 0.0 3.0 0 0
- 0.2376 2 3 tcp 1000 ------- 0 0.0 3.0 0 0
r 0.2592 2 3 tcp 1000 ------- 0 0.0 3.0 0 0
+ 0.2592 3 2 ack 40 ------- 0 3.0 0.0 0 1
- 0.2592 3 2 ack 40 ------- 0 3.0 0.0 0 1
r 0.279264 3 2 ack 40 ------- 0 3.0 0.0 0 1
+ 0.279264 2 1 ack 40 ------- 0 3.0 0.0 0 1
- 0.279264 2 1 ack 40 ------- 0 3.0 0.0 0 1
r 0.379904 2 1 ack 40 ------- 0 3.0 0.0 0 1
+ 0.379904 1 0 ack 40 ------- 0 3.0 0.0 0 1
- 0.379904 1 0 ack 40 ------- 0 3.0 0.0 0 1
r 0.399968 1 0 ack 40 ------- 0 3.0 0.0 0 1
+ 0.399968 0 1 tcp 1000 ------- 0 0.0 3.0 1 2
- 0.399968 0 1 tcp 1000 ------- 0 0.0 3.0 1 2
r 0.421568 0 1 tcp 1000 ------- 0 0.0 3.0 1 2
+ 0.421568 1 2 tcp 1000 ------- 0 0.0 3.0 1 2
- 0.421568 1 2 tcp 1000 ------- 0 0.0 3.0 1 2
r 0.537568 1 2 tcp 1000 ------- 0 0.0 3.0 1 2
+ 0.537568 2 3 tcp 1000 ------- 0 0.0 3.0 1 2
- 0.537568 2 3 tcp 1000 ------- 0 0.0 3.0 1 2
r 0.559168 2 3 tcp 1000 ------- 0 0.0 3.0 1 2
+ 0.559168 3 2 ack 40 ------- 0 3.0 0.0 1 3
- 0.559168 3 2 ack 40 ------- 0 3.0 0.0 1 3
r 0.579232 3 2 ack 40 ------- 0 3.0 0.0 1 3
+ 0.579232 2 1 ack 40 ------- 0 3.0 0.0 1 3
- 0.579232 2 1 ack 40 ------- 0 3.0 0.0 1 3
r 0.679872 2 1 ack 40 ------- 0 3.0 0.0 1 3
+ 0.679872 1 0 ack 40 ------- 0 3.0 0.0 1 3
- 0.679872 1 0 ack 40 ------- 0 3.0 0.0 1 3
r 0.699936 1 0 ack 40 ------- 0 3.0 0.0 1 3
+ 0.699936 0 1 tcp 1000 ------- 0 0.0 3.0 2 4
- 0.699936 0 1 tcp 1000 ------- 0 0.0 3.0 2 4
+ 0.699936 0 1 tcp 1000 ------- 0 0.0 3.0 3 5
+ 0.699936 0 1 tcp 1000 ------- 0 0.0 3.0 4 6
- 0.701536 0 1 tcp 1000 ------- 0 0.0 3.0 3 5
- 0.703136 0 1 tcp 1000 ------- 0 0.0 3.0 4 6
r 0.721536 0 1 tcp 1000 ------- 0 0.0 3.0 2 4
+ 0.721536 1 2 tcp 1000 ------- 0 0.0 3.0 2 4
- 0.721536 1 2 tcp 1000 ------- 0 0.0 3.0 2 4
r 0.723136 0 1 tcp 1000 ------- 0 0.0 3.0 3 5
+ 0.723136 1 2 tcp 1000 ------- 0 0.0 3.0 3 5
r 0.724736 0 1 tcp 1000 ------- 0 0.0 3.0 4 6
+ 0.724736 1 2 tcp 1000 ------- 0 0.0 3.0 4 6
- 0.737536 1 2 tcp 1000 ------- 0 0.0 3.0 3 5
- 0.753536 1 2 tcp 1000 ------- 0 0.0 3.0 4 6
r 0.837536 1 2 tcp 1000 ------- 0 0.0 3.0 2 4
+ 0.837536 2 3 tcp 1000 ------- 0 0.0 3.0 2 4
- 0.837536 2 3 tcp 1000 ------- 0 0.0 3.0 2 4
r 0.853536 1 2 tcp 1000 ------- 0 0.0 3.0 3 5
+ 0.853536 2 3 tcp 1000 ------- 0 0.0 3.0 3 5
- 0.853536 2 3 tcp 1000 ------- 0 0.0 3.0 3 5
r 0.859136 2 3 tcp 1000 ------- 0 0.0 3.0 2 4
+ 0.859136 3 2 ack 40 ------- 0 3.0 0.0 2 7
- 0.859136 3 2 ack 40 ------- 0 3.0 0.0 2 7
r 0.869536 1 2 tcp 1000 ------- 0 0.0 3.0 4 6
+ 0.869536 2 3 tcp 1000 ------- 0 0.0 3.0 4 6
- 0.869536 2 3 tcp 1000 ------- 0 0.0 3.0 4 6
r 0.875136 2 3 tcp 1000 ------- 0 0.0 3.0 3 5
+ 0.875136 3 2 ack 40 ------- 0 3.0 0.0 3 8
- 0.875136 3 2 ack 40 ------- 0 3.0 0.0 3 8
r 0.8792 3 2 ack 40 ------- 0 3.0 0.0 2 7
+ 0.8792 2 1 ack 40 ------- 0 3.0 0.0 2 7
- 0.8792 2 1 ack 40 ------- 0 3.0 0.0 2 7
r 0.891136 2 3 tcp 1000 ------- 0 0.0 3.0 4 6
+ 0.891136 3 2 ack 40 ------- 0 3.0 0.0 4 9
- 0.891136 3 2 ack 40 ------- 0 3.0 0.0 4 9
r 0.8952 3 2 ack 40 ------- 0 3.0 0.0 3 8
+ 0.8952 2 1 ack 40 ------- 0 3.0 0.0 3 8
- 0.8952 2 1 ack 40 ------- 0 3.0 0.0 3 8
r 0.9112 3 2 ack 40 ------- 0 3.0 0.0 4 9
+ 0.9112 2 1 ack 40 ------- 0 3.0 0.0 4 9
- 0.9112 2 1 ack 40 ------- 0 3.0 0.0 4 9
r 0.97984 2 1 ack 40 ------- 0 3.0 0.0 2 7
+ 0.97984 1 0 ack 40 ------- 0 3.0 0.0 2 7
- 0.97984 1 0 ack 40 ------- 0 3.0 0.0 2 7
r 0.99584 2 1 ack 40 ------- 0 3.0 0.0 3 8
+ 0.99584 1 0 ack 40 ------- 0 3.0 0.0 3 8
- 0.99584 1 0 ack 40 ------- 0 3.0 0.0 3 8
r 0.999904 1 0 ack 40 ------- 0 3.0 0.0 2 7
+ 0.999904 0 1 tcp 1000 ------- 0 0.0 3.0 5 10
- 0.999904 0 1 tcp 1000 ------- 0 0.0 3.0 5 10
r 1.01184 2 1 ack 40 ------- 0 3.0 0.0 4 9
+ 1.01184 1 0 ack 40 ------- 0 3.0 0.0 4 9
- 1.01184 1 0 ack 40 ------- 0 3.0 0.0 4 9
r 1.015904 1 0 ack 40 ------- 0 3.0 0.0 3 8
+ 1.015904 0 1 tcp 1000 ------- 0 0.0 3.0 6 11
- 1.015904 0 1 tcp 1000 ------- 0 0.0 3.0 6 11
r 1.021504 0 1 tcp 1000 ------- 0 0.0 3.0 5 10
+ 1.021504 1 2 tcp 1000 ------- 0 0.0 3.0 5 10
- 1.021504 1 2 tcp 1000 ------- 0 0.0 3.0 5 10
r 1.031904 1 0 ack 40 ------- 0 3.0 0.0 4 9
+ 1.031904 0 1 tcp 1000 ------- 0 0.0 3.0 7 12
- 1.031904 0 1 tcp 1000 ------- 0 0.0 3.0 7 12
r 1.037504 0 1 tcp 1000 ------- 0 0.0 3.0 6 11
+ 1.037504 1 2 tcp 1000 ------- 0 0.0 3.0 6 11
- 1.037504 1 2 tcp 1000 ------- 0 0.0 3.0 6 11
r 1.053504 0 1 tcp 1000 ------- 0 0.0 3.0 7 12
+ 1.053504 1 2 tcp 1000 ------- 0 0.0 3.0 7 12
- 1.053504 1 2 tcp 1000 ------- 0 0.0 3.0 7 12
r 1.137504 1 2 tcp 1000 ------- 0 0.0 3.0 5 10
+ 1.137504 2 3 tcp 1000 ------- 0 0.0 3.0 5 10
- 1.137504 2 3 tcp 1000 ------- 0 0.0 3.0 5 10
r 1.153504 1 2 tcp 1000 ------- 0 0.0 3.0 6 11
+ 1.153504 2 3 tcp 1000 ------- 0 0.0 3.0 6 11
- 1.153504 2 3 tcp 1000 ------- 0 0.0 3.0 6 11
r 1.159104 2 3 tcp 1000 ------- 0 0.0 3.0 5 10
+ 1.159104 3 2 ack 40 ------- 0 3.0 0.0 5 13
- 1.159104 3 2 ack 40 ------- 0 3.0 0.0 5 13
r 1.169504 1 2 tcp 1000 ------- 0 0.0 3.0 7 12
+ 1.169504 2 3 tcp 1000 ------- 0 0.0 3.0 7 12
- 1.169504 2 3 tcp 1000 ------- 0 0.0 3.0 7 12
r 1.175104 2 3 tcp 1000 ------- 0 0.0 3.0 6 11
+ 1.175104 3 2 ack 40 ------- 0 3.0 0.0 6 14
- 1.175104 3 2 ack 40 ------- 0 3.0 0.0 6 14
r 1.179168 3 2 ack 40 ------- 0 3.0 0.0 5 13
+ 1.179168 2 1 ack 40 ------- 0 3.0 0.0 5 13
- 1.179168 2 1 ack 40 ------- 0 3.0 0.0 5 13
r 1.191104 2 3 tcp 1000 ------- 0 0.0 3.0 7 12
+ 1.191104 3 2 ack 40 ------- 0 3.0 0.0 7 15
- 1.191104 3 2 ack 40 ------- 0 3.0 0.0 7 15
r 1.195168 3 2 ack 40 ------- 0 3.0 0.0 6 14
+ 1.195168 2 1 ack 40 ------- 0 3.0 0.0 6 14
- 1.195168 2 1 ack 40 ------- 0 3.0 0.0 6 14
r 1.211168 3 2 ack 40 ------- 0 3.0 0.0 7 15
+ 1.211168 2 1 ack 40 ------- 0 3.0 0.0 7 15
- 1.211168 2 1 ack 40 ------- 0 3.0 0.0 7 15
r 1.279808 2 1 ack 40 ------- 0 3.0 0.0 5 13
+ 1.279808 1 0 ack 40 ------- 0 3.0 0.0 5 13
- 1.279808 1 0 ack 40 ------- 0 3.0 0.0 5 13
r 1.295808 2 1 ack 40 ------- 0 3.0 0.0 6 14
+ 1.295808 1 0 ack 40 ------- 0 3.0 0.0 6 14
- 1.295808 1 0 ack 40 ------- 0 3.0 0.0 6 14
r 1.299872 1 0 ack 40 ------- 0 3.0 0.0 5 13
+ 1.299872 0 1 tcp 1000 ------- 0 0.0 3.0 8 16
- 1.299872 0 1 tcp 1000 ------- 0 0.0 3.0 8 16
+ 1.299872 0 1 tcp 1000 ------- 0 0.0 3.0 9 17
- 1.301472 0 1 tcp 1000 ------- 0 0.0 3.0 9 17
r 1.311808 2 1 ack 40 ------- 0 3.0 0.0 7 15
+ 1.311808 1 0 ack 40 ------- 0 3.0 0.0 7 15
- 1.311808 1 0 ack 40 ------- 0 3.0 0.0 7 15
r 1.315872 1 0 ack 40 ------- 0 3.0 0.0 6 14
+ 1.315872 0 1 tcp 1000 ------- 0 0.0 3.0 10 18
- 1.315872 0 1 tcp 1000 ------- 0 0.0 3.0 10 18
+ 1.315872 0 1 tcp 1000 ------- 0 0.0 3.0 11 19
- 1.317472 0 1 tcp 1000 ------- 0 0.0 3.0 11 19
r 1.321472 0 1 tcp 1000 ------- 0 0.0 3.0 8 16
+ 1.321472 1 2 tcp 1000 ------- 0 0.0 3.0 8 16
- 1.321472 1 2 tcp 1000 ------- 0 0.0 3.0 8 16
r 1.323072 0 1 tcp 1000 ------- 0 0.0 3.0 9 17
+ 1.323072 1 2 tcp 1000 ------- 0 0.0 3.0 9 17
r 1.331872 1 0 ack 40 ------- 0 3.0 0.0 7 15
+ 1.331872 0 1 tcp 1000 ------- 0 0.0 3.0 12 20
- 1.331872 0 1 tcp 1000 ------- 0 0.0 3.0 12 20
+ 1.331872 0 1 tcp 1000 ------- 0 0.0 3.0 13 21
- 1.333472 0 1 tcp 1000 ------- 0 0.0 3.0 13 21
- 1.337472 1 2 tcp 1000 ------- 0 0.0 3.0 9 17
r 1.337472 0 1 tcp 1000 ------- 0 0.0 3.0 10 18
+ 1.337472 1 2 tcp 1000 ------- 0 0.0 3.0 10 18
r 1.339072 0 1 tcp 1000 ------- 0 0.0 3.0 11 19
+ 1.339072 1 2 tcp 1000 ------- 0 0.0 3.0 11 19
- 1.353472 1 2 tcp 1000 ------- 0 0.0 3.0 10 18
r 1.353472 0 1 tcp 1000 ------- 0 0.0 3.0 12 20
+ 1.353472 1 2 tcp 1000 ------- 0 0.0 3.0 12 20
r 1.355072 0 1 tcp 1000 ------- 0 0.0 3.0 13 21
+ 1.355072 1 2 tcp 1000 ------- 0 0.0 3.0 13 21
- 1.369472 1 2 tcp 1000 ------- 0 0.0 3.0 11 19
- 1.385472 1 2 tcp 1000 ------- 0 0.0 3.0 12 20
- 1.401472 1 2 tcp 1000 ------- 0 0.0 3.0 13 21
r 1.437472 1 2 tcp 1000 ------- 0 0.0 3.0 8 16
+ 1.437472 2 3 tcp 1000 ------- 0 0.0 3.0 8 16
- 1.437472 2 3 tcp 1000 ------- 0 0.0 3.0 8 16
r 1.453472 1 2 tcp 1000 ------- 0 0.0 3.0 9 17
+ 1.453472 2 3 tcp 1000 ------- 0 0.0 3.0 9 17
- 1.453472 2 3 tcp 1000 ------- 0 0.0 3.0 9 17
r 1.459072 2 3 tcp 1000 ------- 0 0.0 3.0 8 16
+ 1.459072 3 2 ack 40 ------- 0 3.0 0.0 8 22
- 1.459072 3 2 ack 40 ------- 0 3.0 0.0 8 22
r 1.469472 1 2 tcp 1000 ------- 0 0.0 3.0 10 18
+ 1.469472 2 3 tcp 1000 ------- 0 0.0 3.0 10 18
- 1.469472 2 3 tcp 1000 ------- 0 0.0 3.0 10 18
r 1.475072 2 3 tcp 1000 ------- 0 0.0 3.0 9 17
+ 1.475072 3 2 ack 40 ------- 0 3.0 0.0 9 23
- 1.475072 3 2 ack 40 ------- 0 3.0 0.0 9 23
r 1.479136 3 2 ack 40 ------- 0 3.0 0.0 8 22
+ 1.479136 2 1 ack 40 ------- 0 3.0 0.0 8 22
- 1.479136 2 1 ack 40 ------- 0 3.0 0.0 8 22
r 1.485472 1 2 tcp 1000 ------- 0 0.0 3.0 11 19
+ 1.485472 2 3 tcp 1000 ------- 0 0.0 3.0 11 19
- 1.485472 2 3 tcp 1000 ------- 0 0.0 3.0 11 19
r 1.491072 2 3 tcp 1000 ------- 0 0.0 3.0 10 18
+ 1.491072 3 2 ack 40 ------- 0 3.0 0.0 10 24
- 1.491072 3 2 ack 40 ------- 0 3.0 0.0 10 24
r 1.495136 3 2 ack 40 ------- 0 3.0 0.0 9 23
+ 1.495136 2 1 ack 40 ------- 0 3.0 0.0 9 23
- 1.495136 2 1 ack 40 ------- 0 3.0 0.0 9 23
r 1.501472 1 2 tcp 1000 ------- 0 0.0 3.0 12 20
+ 1.501472 2 3 tcp 1000 ------- 0 0.0 3.0 12 20
- 1.501472 2 3 tcp 1000 ------- 0 0.0 3.0 12 20
r 1.507072 2 3 tcp 1000 ------- 0 0.0 3.0 11 19
+ 1.507072 3 2 ack 40 ------- 0 3.0 0.0 11 25
- 1.507072 3 2 ack 40 ------- 0 3.0 0.0 11 25
r 1.511136 3 2 ack 40 ------- 0 3.0 0.0 10 24
+ 1.511136 2 1 ack 40 ------- 0 3.0 0.0 10 24
- 1.511136 2 1 ack 40 ------- 0 3.0 0.0 10 24
r 1.517472 1 2 tcp 1000 ------- 0 0.0 3.0 13 21
+ 1.517472 2 3 tcp 1000 ------- 0 0.0 3.0 13 21
- 1.517472 2 3 tcp 1000 ------- 0 0.0 3.0 13 21
r 1.523072 2 3 tcp 1000 ------- 0 0.0 3.0 12 20
+ 1.523072 3 2 ack 40 ------- 0 3.0 0.0 12 26
- 1.523072 3 2 ack 40 ------- 0 3.0 0.0 12 26
r 1.527136 3 2 ack 40 ------- 0 3.0 0.0 11 25
+ 1.527136 2 1 ack 40 ------- 0 3.0 0.0 11 25
- 1.527136 2 1 ack 40 ------- 0 3.0 0.0 11 25
r 1.539072 2 3 tcp 1000 ------- 0 0.0 3.0 13 21
+ 1.539072 3 2 ack 40 ------- 0 3.0 0.0 13 27
- 1.539072 3 2 ack 40 ------- 0 3.0 0.0 13 27
r 1.543136 3 2 ack 40 ------- 0 3.0 0.0 12 26
+ 1.543136 2 1 ack 40 ------- 0 3.0 0.0 12 26
- 1.543136 2 1 ack 40 ------- 0 3.0 0.0 12 26
r 1.559136 3 2 ack 40 ------- 0 3.0 0.0 13 27
+ 1.559136 2 1 ack 40 ------- 0 3.0 0.0 13 27
- 1.559136 2 1 ack 40 ------- 0 3.0 0.0 13 27
r 1.579776 2 1 ack 40 ------- 0 3.0 0.0 8 22
+ 1.579776 1 0 ack 40 ------- 0 3.0 0.0 8 22
- 1.579776 1 0 ack 40 ------- 0 3.0 0.0 8 22
r 1.595776 2 1 ack 40 ------- 0 3.0 0.0 9 23
+ 1.595776 1 0 ack 40 ------- 0 3.0 0.0 9 23
- 1.595776 1 0 ack 40 ------- 0 3.0 0.0 9 23
r 1.59984 1 0 ack 40 ------- 0 3.0 0.0 8 22
+ 1.59984 0 1 tcp 1000 ------- 0 0.0 3.0 14 28
- 1.59984 0 1 tcp 1000 ------- 0 0.0 3.0 14 28
r 1.611776 2 1 ack 40 ------- 0 3.0 0.0 10 24
+ 1.611776 1 0 ack 40 ------- 0 3.0 0.0 10 24
- 1.611776 1 0 ack 40 ------- 0 3.0 0.0 10 24
r 1.61584 1 0 ack 40 ------- 0 3.0 0.0 9 23
+ 1.61584 0 1 tcp 1000 ------- 0 0.0 3.0 15 29
- 1.61584 0 1 tcp 1000 ------- 0 0.0 3.0 15 29
r 1.62144 0 1 tcp 1000 ------- 0 0.0 3.0 14 28
+ 1.62144 1 2 tcp 1000 ------- 0 0.0 3.0 14 28
- 1.62144 1 2 tcp 1000 ------- 0 0.0 3.0 14 28
r 1.627776 2 1 ack 40 ------- 0 3.0 0.0 11 25
+ 1.627776 1 0 ack 40 ------- 0 3.0 0.0 11 25
- 1.627776 1 0 ack 40 ------- 0 3.0 0.0 11 25
r 1.63184 1 0 ack 40 ------- 0 3.0 0.0 10 24
+ 1.63184 0 1 tcp 1000 ------- 0 0.0 3.0 16 30
- 1.63184 0 1 tcp 1000 ------- 0 0.0 3.0 16 30
r 1.63744 0 1 tcp 1000 ------- 0 0.0 3.0 15 29
+ 1.63744 1 2 tcp 1000 ------- 0 0.0 3.0 15 29
- 1.63744 1 2 tcp 1000 ------- 0 0.0 3.0 15 29
r 1.643776 2 1 ack 40 ------- 0 3.0 0.0 12 26
+ 1.643776 1 0 ack 40 ------- 0 3.0 0.0 12 26
- 1.643776 1 0 ack 40 ------- 0 3.0 0.0 12 26
r 1.64784 1 0 ack 40 ------- 0 3.0 0.0 11 25
+ 1.64784 0 1 tcp 1000 ------- 0 0.0 3.0 17 31
- 1.64784 0 1 tcp 1000 ------- 0 0.0 3.0 17 31
r 1.65344 0 1 tcp 1000 ------- 0 0.0 3.0 16 30
+ 1.65344 1 2 tcp 1000 ------- 0 0.0 3.0 16 30
- 1.65344 1 2 tcp 1000 ------- 0 0.0 3.0 16 30
r 1.659776 2 1 ack 40 ------- 0 3.0 0.0 13 27
+ 1.659776 1 0 ack 40 ------- 0 3.0 0.0 13 27
- 1.659776 1 0 ack 40 ------- 0 3.0 0.0 13 27
r 1.66384 1 0 ack 40 ------- 0 3.0 0.0 12 26
+ 1.66384 0 1 tcp 1000 ------- 0 0.0 3.0 18 32
- 1.66384 0 1 tcp 1000 ------- 0 0.0 3.0 18 32
r 1.66944 0 1 tcp 1000 ------- 0 0.0 3.0 17 31
+ 1.66944 1 2 tcp 1000 ------- 0 0.0 3.0 17 31
- 1.66944 1 2 tcp 1000 ------- 0 0.0 3.0 17 31
r 1.67984 1 0 ack 40 ------- 0 3.0 0.0 13 27
+ 1.67984 0 1 tcp 1000 ------- 0 0.0 3.0 19 33
- 1.67984 0 1 tcp 1000 ------- 0 0.0 3.0 19 33
r 1.68544 0 1 tcp 1000 ------- 0 0.0 3.0 18 32
+ 1.68544 1 2 tcp 1000 ------- 0 0.0 3.0 18 32
- 1.68544 1 2 tcp 1000 ------- 0 0.0 3.0 18 32
r 1.70144 0 1 tcp 1000 ------- 0 0.0 3.0 19 33
+ 1.70144 1 2 tcp 1000 ------- 0 0.0 3.0 19 33
- 1.70144 1 2 tcp 1000 ------- 0 0.0 3.0 19 33
r 1.73744 1 2 tcp 1000 ------- 0 0.0 3.0 14 28
+ 1.73744 2 3 tcp 1000 ------- 0 0.0 3.0 14 28
- 1.73744 2 3 tcp 1000 ------- 0 0.0 3.0 14 28
r 1.75344 1 2 tcp 1000 ------- 0 0.0 3.0 15 29
+ 1.75344 2 3 tcp 1000 ------- 0 0.0 3.0 15 29
- 1.75344 2 3 tcp 1000 ------- 0 0.0 3.0 15 29
r 1.75904 2 3 tcp 1000 ------- 0 0.0 3.0 14 28
+ 1.75904 3 2 ack 40 ------- 0 3.0 0.0 14 34
- 1.75904 3 2 ack 40 ------- 0 3.0 0.0 14 34
r 1.76944 1 2 tcp 1000 ------- 0 0.0 3.0 16 30
+ 1.76944 2 3 tcp 1000 ------- 0 0.0 3.0 16 30
- 1.76944 2 3 tcp 1000 ------- 0 0.0 3.0 16 30
r 1.77504 2 3 tcp 1000 ------- 0 0.0 3.0 15 29
+ 1.77504 3 2 ack 40 ------- 0 3.0 0.0 15 35
- 1.77504 3 2 ack 40 ------- 0 3.0 0.0 15 35
r 1.779104 3 2 ack 40 ------- 0 3.0 0.0 14 34
+ 1.779104 2 1 ack 40 ------- 0 3.0 0.0 14 34
- 1.779104 2 1 ack 40 ------- 0 3.0 0.0 14 34
r 1.78544 1 2 tcp 1000 ------- 0 0.0 3.0 17 31
+ 1.78544 2 3 tcp 1000 ------- 0 0.0 3.0 17 31
- 1.78544 2 3 tcp 1000 ------- 0 0.0 3.0 17 31
r 1.79104 2 3 tcp 1000 ------- 0 0.0 3.0 16 30
+ 1.79104 3 2 ack 40 ------- 0 3.0 0.0 16 36
- 1.79104 3 2 ack 40 ------- 0 3.0 0.0 16 36
r 1.795104 3 2 ack 40 ------- 0 3.0 0.0 15 35
+ 1.795104 2 1 ack 40 ------- 0 3.0 0.0 15 35
- 1.795104 2 1 ack 40 ------- 0 3.0 0.0 15 35
r 1.80144 1 2 tcp 1000 ------- 0 0.0 3.0 18 32
+ 1.80144 2 3 tcp 1000 ------- 0 0.0 3.0 18 32
- 1.80144 2 3 tcp 1000 ------- 0 0.0 3.0 18 32
r 1.80704 2 3 tcp 1000 ------- 0 0.0 3.0 17 31
+ 1.80704 3 2 ack 40 ------- 0 3.0 0.0 17 37
- 1.80704 3 2 ack 40 ------- 0 3.0 0.0 17 37
r 1.811104 3 2 ack 40 ------- 0 3.0 0.0 16 36
+ 1.811104 2 1 ack 40 ------- 0 3.0 0.0 16 36
- 1.811104 2 1 ack 40 ------- 0 3.0 0.0 16 36
r 1.81744 1 2 tcp 1000 ------- 0 0.0 3.0 19 33
+ 1.81744 2 3 tcp 1000 ------- 0 0.0 3.0 19 33
- 1.81744 2 3 tcp 1000 ------- 0 0.0 3.0 19 33
r 1.82304 2 3 tcp 1000 ------- 0 0.0 3.0 18 32
+ 1.82304 3 2 ack 40 ------- 0 3.0 0.0 18 38
- 1.82304 3 2 ack 40 ------- 0 3.0 0.0 18 38
r 1.827104 3 2 ack 40 ------- 0 3.0 0.0 17 37
+ 1.827104 2 1 ack 40 ------- 0 3.0 0.0 17 37
- 1.827104 2 1 ack 40 ------- 0 3.0 0.0 17 37
r 1.83904 2 3 tcp 1000 ------- 0 0.0 3.0 19 33
+ 1.83904 3 2 ack 40 ------- 0 3.0 0.0 19 39
- 1.83904 3 2 ack 40 ------- 0 3.0 0.0 19 39
r 1.843104 3 2 ack 40 ------- 0 3.0 0.0 18 38
+ 1.843104 2 1 ack 40 ------- 0 3.0 0.0 18 38
- 1.843104 2 1 ack 40 ------- 0 3.0 0.0 18 38
r 1.859104 3 2 ack 40 ------- 0 3.0 0.0 19 39
+ 1.859104 2 1 ack 40 ------- 0 3.0 0.0 19 39
- 1.859104 2 1 ack 40 ------- 0 3.0 0.0 19 39
r 1.879744 2 1 ack 40 ------- 0 3.0 0.0 14 34
+ 1.879744 1 0 ack 40 ------- 0 3.0 0.0 14 34
- 1.879744 1 0 ack 40 ------- 0 3.0 0.0 14 34
r 1.895744 2 1 ack 40 ------- 0 3.0 0.0 15 35
+ 1.895744 1 0 ack 40 ------- 0 3.0 0.0 15 35
- 1.895744 1 0 ack 40 ------- 0 3.0 0.0 15 35
r 1.899808 1 0 ack 40 ------- 0 3.0 0.0 14 34
+ 1.899808 0 1 tcp 1000 ------- 0 0.0 3.0 20 40
- 1.899808 0 1 tcp 1000 ------- 0 0.0 3.0 20 40
+ 1.899808 0 1 tcp 1000 ------- 0 0.0 3.0 21 41
- 1.901408 0 1 tcp 1000 ------- 0 0.0 3.0 21 41
r 1.911744 2 1 ack 40 ------- 0 3.0 0.0 16 36
+ 1.911744 1 0 ack 40 ------- 0 3.0 0.0 16 36
- 1.911744 1 0 ack 40 ------- 0 3.0 0.0 16 36
r 1.915808 1 0 ack 40 ------- 0 3.0 0.0 15 35
+ 1.915808 0 1 tcp 1000 ------- 0 0.0 3.0 22 42
- 1.915808 0 1 tcp 1000 ------- 0 0.0 3.0 22 42
+ 1.915808 0 1 tcp 1000 ------- 0 0.0 3.0 23 43
- 1.917408 0 1 tcp 1000 ------- 0 0.0 3.0 23 43
r 1.921408 0 1 tcp 1000 ------- 0 0.0 3.0 20 40
+ 1.921408 1 2 tcp 1000 ------- 0 0.0 3.0 20 40
- 1.921408 1 2 tcp 1000 ------- 0 0.0 3.0 20 40
r 1.923008 0 1 tcp 1000 ------- 0 0.0 3.0 21 41
+ 1.923008 1 2 tcp 1000 ------- 0 0.0 3.0 21 41
r 1.927744 2 1 ack 40 ------- 0 3.0 0.0 17 37
+ 1.927744 1 0 ack 40 ------- 0 3.0 0.0 17 37
- 1.927744 1 0 ack 40 ------- 0 3.0 0.0 17 37
r 1.931808 1 0 ack 40 ------- 0 3.0 0.0 16 36
+ 1.931808 0 1 tcp 1000 ------- 0 0.0 3.0 24 44
- 1.931808 0 1 tcp 1000 ------- 0 0.0 3.0 24 44
+ 1.931808 0 1 tcp 1000 ------- 0 0.0 3.0 25 45
- 1.933408 0 1 tcp 1000 ------- 0 0.0 3.0 25 45
r 1.937408 0 1 tcp 1000 ------- 0 0.0 3.0 22 42
+ 1.937408 1 2 tcp 1000 ------- 0 0.0 3.0 22 42
- 1.937408 1 2 tcp 1000 ------- 0 0.0 3.0 21 41
r 1.939008 0 1 tcp 1000 ------- 0 0.0 3.0 23 43
+ 1.939008 1 2 tcp 1000 ------- 0 0.0 3.0 23 43
r 1.943744 2 1 ack 40 ------- 0 3.0 0.0 18 38
+ 1.943744 1 0 ack 40 ------- 0 3.0 0.0 18 38
- 1.943744 1 0 ack 40 ------- 0 3.0 0.0 18 38
r 1.947808 1 0 ack 40 ------- 0 3.0 0.0 17 37
+ 1.947808 0 1 tcp 1000 ------- 0 0.0 3.0 26 46
- 1.947808 0 1 tcp 1000 ------- 0 0.0 3.0 26 46
+ 1.947808 0 1 tcp 1000 ------- 0 0.0 3.0 27 47
- 1.949408 0 1 tcp 1000 ------- 0 0.0 3.0 27 47
r 1.953408 0 1 tcp 1000 ------- 0 0.0 3.0 24 44
+ 1.953408 1 2 tcp 1000 ------- 0 0.0 3.0 24 44
- 1.953408 1 2 tcp 1000 ------- 0 0.0 3.0 22 42
r 1.955008 0 1 tcp 1000 ------- 0 0.0 3.0 25 45
+ 1.955008 1 2 tcp 1000 ------- 0 0.0 3.0 25 45
r 1.959744 2 1 ack 40 ------- 0 3.0 0.0 19 39
+ 1.959744 1 0 ack 40 ------- 0 3.0 0.0 19 39
- 1.959744 1 0 ack 40 ------- 0 3.0 0.0 19 39
r 1.963808 1 0 ack 40 ------- 0 3.0 0.0 18 38
+ 1.963808 0 1 tcp 1000 ------- 0 0.0 3.0 28 48
- 1.963808 0 1 tcp 1000 ------- 0 0.0 3.0 28 48
+ 1.963808 0 1 tcp 1000 ------- 0 0.0 3.0 29 49
- 1.965408 0 1 tcp 1000 ------- 0 0.0 3.0 29 49
r 1.969408 0 1 tcp 1000 ------- 0 0.0 3.0 26 46
+ 1.969408 1 2 tcp 1000 ------- 0 0.0 3.0 26 46
- 1.969408 1 2 tcp 1000 ------- 0 0.0 3.0 23 43
r 1.971008 0 1 tcp 1000 ------- 0 0.0 3.0 27 47
+ 1.971008 1 2 tcp 1000 ------- 0 0.0 3.0 27 47
r 1.979808 1 0 ack 40 ------- 0 3.0 0.0 19 39
+ 1.979808 0 1 tcp 1000 ------- 0 0.0 3.0 30 50
- 1.979808 0 1 tcp 1000 ------- 0 0.0 3.0 30 50
+ 1.979808 0 1 tcp 1000 ------- 0 0.0 3.0 31 51
- 1.981408 0 1 tcp 1000 ------- 0 0.0 3.0 31 51
r 1.985408 0 1 tcp 1000 ------- 0 0.0 3.0 28 48
+ 1.985408 1 2 tcp 1000 ------- 0 0.0 3.0 28 48
d 1.985408 1 2 tcp 1000 ------- 0 0.0 3.0 28 48
- 1.985408 1 2 tcp 1000 ------- 0 0.0 3.0 24 44
r 1.987008 0 1 tcp 1000 ------- 0 0.0 3.0 29 49
+ 1.987008 1 2 tcp 1000 ------- 0 0.0 3.0 29 49
r 2.001408 0 1 tcp 1000 ------- 0 0.0 3.0 30 50
+ 2.001408 1 2 tcp 1000 ------- 0 0.0 3.0 30 50
d 2.001408 1 2 tcp 1000 ------- 0 0.0 3.0 30 50
- 2.001408 1 2 tcp 1000 ------- 0 0.0 3.0 25 45
r 2.003008 0 1 tcp 1000 ------- 0 0.0 3.0 31 51
+ 2.003008 1 2 tcp 1000 ------- 0 0.0 3.0 31 51
- 2.017408 1 2 tcp 1000 ------- 0 0.0 3.0 26 46
- 2.033408 1 2 tcp 1000 ------- 0 0.0 3.0 27 47
r 2.037408 1 2 tcp 1000 ------- 0 0.0 3.0 20 40
+ 2.037408 2 3 tcp 1000 ------- 0 0.0 3.0 20 40
- 2.037408 2 3 tcp 1000 ------- 0 0.0 3.0 20 40
- 2.049408 1 2 tcp 1000 ------- 0 0.0 3.0 29 49
r 2.053408 1 2 tcp 1000 ------- 0 0.0 3.0 21 41
+ 2.053408 2 3 tcp 1000 ------- 0 0.0 3.0 21 41
- 2.053408 2 3 tcp 1000 ------- 0 0.0 3.0 21 41
r 2.059008 2 3 tcp 1000 ------- 0 0.0 3.0 20 40
+ 2.059008 3 2 ack 40 ------- 0 3.0 0.0 20 52
- 2.059008 3 2 ack 40 ------- 0 3.0 0.0 20 52
- 2.065408 1 2 tcp 1000 ------- 0 0.0 3.0 31 51
r 2.069408 1 2 tcp 1000 ------- 0 0.0 3.0 22 42
+ 2.069408 2 3 tcp 1000 ------- 0 0.0 3.0 22 42
- 2.069408 2 3 tcp 1000 ------- 0 0.0 3.0 22 42
r 2.075008 2 3 tcp 1000 ------- 0 0.0 3.0 21 41
+ 2.075008 3 2 ack 40 ------- 0 3.0 0.0 21 53
- 2.075008 3 2 ack 40 ------- 0 3.0 0.0 21 53
r 2.079072 3 2 ack 40 ------- 0 3.0 0.0 20 52
+ 2.079072 2 1 ack 40 ------- 0 3.0 0.0 20 52
- 2.079072 2 1 ack 40 ------- 0 3.0 0.0 20 52
r 2.085408 1 2 tcp 1000 ------- 0 0.0 3.0 23 43
+ 2.085408 2 3 tcp 1000 ------- 0 0.0 3.0 23 43
- 2.085408 2 3 tcp 1000 ------- 0 0.0 3.0 23 43
r 2.091008 2 3 tcp 1000 ------- 0 0.0 3.0 22 42
+ 2.091008 3 2 ack 40 ------- 0 3.0 0.0 22 54
- 2.091008 3 2 ack 40 ------- 0 3.0 0.0 22 54
r 2.095072 3 2 ack 40 ------- 0 3.0 0.0 21 53
+ 2.095072 2 1 ack 40 ------- 0 3.0 0.0 21 53
- 2.095072 2 1 ack 40 ------- 0 3.0 0.0 21 53
r 2.101408 1 2 tcp 1000 ------- 0 0.0 3.0 24 44
+ 2.101408 2 3 tcp 1000 ------- 0 0.0 3.0 24 44
- 2.101408 2 3 tcp 1000 ------- 0 0.0 3.0 24 44
r 2.107008 2 3 tcp 1000 ------- 0 0.0 3.0 23 43
+ 2.107008 3 2 ack 40 ------- 0 3.0 0.0 23 55
- 2.107008 3 2 ack 40 ------- 0 3.0 0.0 23 55
r 2.111072 3 2 ack 40 ------- 0 3.0 0.0 22 54
+ 2.111072 2 1 ack 40 ------- 0 3.0 0.0 22 54
- 2.111072 2 1 ack 40 ------- 0 3.0 0.0 22 54
r 2.117408 1 2 tcp 1000 ------- 0 0.0 3.0 25 45
+ 2.117408 2 3 tcp 1000 ------- 0 0.0 3.0 25 45
- 2.117408 2 3 tcp 1000 ------- 0 0.0 3.0 25 45
r 2.123008 2 3 tcp 1000 ------- 0 0.0 3.0 24 44
+ 2.123008 3 2 ack 40 ------- 0 3.0 0.0 24 56
- 2.123008 3 2 ack 40 ------- 0 3.0 0.0 24 56
r 2.127072 3 2 ack 40 ------- 0 3.0 0.0 23 55
+ 2.127072 2 1 ack 40 ------- 0 3.0 0.0 23 55
- 2.127072 2 1 ack 40 ------- 0 3.0 0.0 23 55
r 2.133408 1 2 tcp 1000 ------- 0 0.0 3.0 26 46
+ 2.133408 2 3 tcp 1000 ------- 0 0.0 3.0 26 46
- 2.133408 2 3 tcp 1000 ------- 0 0.0 3.0 26 46
r 2.139008 2 3 tcp 1000 ------- 0 0.0 3.0 25 45
+ 2.139008 3 2 ack 40 ------- 0 3.0 0.0 25 57
- 2.139008 3 2 ack 40 ------- 0 3.0 0.0 25 57
r 2.143072 3 2 ack 40 ------- 0 3.0 0.0 24 56
+ 2.143072 2 1 ack 40 ------- 0 3.0 0.0 24 56
- 2.143072 2 1 ack 40 ------- 0 3.0 0.0 24 56
r 2.149408 1 2 tcp 1000 ------- 0 0.0 3.0 27 47
+ 2.149408 2 3 tcp 1000 ------- 0 0.0 3.0 27 47
- 2.149408 2 3 tcp 1000 ------- 0 0.0 3.0 27 47
r 2.155008 2 3 tcp 1000 ------- 0 0.0 3.0 26 46
+ 2.155008 3 2 ack 40 ------- 0 3.0 0.0 26 58
- 2.155008 3 2 ack 40 ------- 0 3.0 0.0 26 58
r 2.159072 3 2 ack 40 ------- 0 3.0 0.0 25 57
+ 2.159072 2 1 ack 40 ------- 0 3.0 0.0 25 57
- 2.159072 2 1 ack 40 ------- 0 3.0 0.0 25 57
r 2.165408 1 2 tcp 1000 ------- 0 0.0 3.0 29 49
+ 2.165408 2 3 tcp 1000 ------- 0 0.0 3.0 29 49
- 2.165408 2 3 tcp 1000 ------- 0 0.0 3.0 29 49
r 2.171008 2 3 tcp 1000 ------- 0 0.0 3.0 27 47
+ 2.171008 3 2 ack 40 ------- 0 3.0 0.0 27 59
- 2.171008 3 2 ack 40 ------- 0 3.0 0.0 27 59
r 2.175072 3 2 ack 40 ------- 0 3.0 0.0 26 58
+ 2.175072 2 1 ack 40 ------- 0 3.0 0.0 26 58
- 2.175072 2 1 ack 40 ------- 0 3.0 0.0 26 58
r 2.179712 2 1 ack 40 ------- 0 3.0 0.0 20 52
+ 2.179712 1 0 ack 40 ------- 0 3.0 0.0 20 52
- 2.179712 1 0 ack 40 ------- 0 3.0 0.0 20 52
r 2.181408 1 2 tcp 1000 ------- 0 0.0 3.0 31 51
+ 2.181408 2 3 tcp 1000 ------- 0 0.0 3.0 31 51
- 2.181408 2 3 tcp 1000 ------- 0 0.0 3.0 31 51
r 2.187008 2 3 tcp 1000 ------- 0 0.0 3.0 29 49
+ 2.187008 3 2 ack 40 ------- 0 3.0 0.0 27 60
- 2.187008 3 2 ack 40 ------- 0 3.0 0.0 27 60
r 2.191072 3 2 ack 40 ------- 0 3.0 0.0 27 59
+ 2.191072 2 1 ack 40 ------- 0 3.0 0.0 27 59
- 2.191072 2 1 ack 40 ------- 0 3.0 0.0 27 59
r 2.195712 2 1 ack 40 ------- 0 3.0 0.0 21 53
+ 2.195712 1 0 ack 40 ------- 0 3.0 0.0 21 53
- 2.195712 1 0 ack 40 ------- 0 3.0 0.0 21 53
r 2.199776 1 0 ack 40 ------- 0 3.0 0.0 20 52
+ 2.199776 0 1 tcp 1000 ------- 0 0.0 3.0 32 61
- 2.199776 0 1 tcp 1000 ------- 0 0.0 3.0 32 61
r 2.203008 2 3 tcp 1000 ------- 0 0.0 3.0 31 51
+ 2.203008 3 2 ack 40 ------- 0 3.0 0.0 27 62
- 2.203008 3 2 ack 40 ------- 0 3.0 0.0 27 62
r 2.207072 3 2 ack 40 ------- 0 3.0 0.0 27 60
+ 2.207072 2 1 ack 40 ------- 0 3.0 0.0 27 60
- 2.207072 2 1 ack 40 ------- 0 3.0 0.0 27 60
r 2.211712 2 1 ack 40 ------- 0 3.0 0.0 22 54
+ 2.211712 1 0 ack 40 ------- 0 3.0 0.0 22 54
- 2.211712 1 0 ack 40 ------- 0 3.0 0.0 22 54
r 2.215776 1 0 ack 40 ------- 0 3.0 0.0 21 53
+ 2.215776 0 1 tcp 1000 ------- 0 0.0 3.0 33 63
- 2.215776 0 1 tcp 1000 ------- 0 0.0 3.0 33 63
r 2.221376 0 1 tcp 1000 ------- 0 0.0 3.0 32 61
+ 2.221376 1 2 tcp 1000 ------- 0 0.0 3.0 32 61
- 2.221376 1 2 tcp 1000 ------- 0 0.0 3.0 32 61
r 2.223072 3 2 ack 40 ------- 0 3.0 0.0 27 62
+ 2.223072 2 1 ack 40 ------- 0 3.0 0.0 27 62
- 2.223072 2 1 ack 40 ------- 0 3.0 0.0 27 62
r 2.227712 2 1 ack 40 ------- 0 3.0 0.0 23 55
+ 2.227712 1 0 ack 40 ------- 0 3.0 0.0 23 55
- 2.227712 1 0 ack 40 ------- 0 3.0 0.0 23 55
r 2.231776 1 0 ack 40 ------- 0 3.0 0.0 22 54
+ 2.231776 0 1 tcp 1000 ------- 0 0.0 3.0 34 64
- 2.231776 0 1 tcp 1000 ------- 0 0.0 3.0 34 64
r 2.237376 0 1 tcp 1000 ------- 0 0.0 3.0 33 63
+ 2.237376 1 2 tcp 1000 ------- 0 0.0 3.0 33 63
- 2.237376 1 2 tcp 1000 ------- 0 0.0 3.0 33 63
r 2.243712 2 1 ack 40 ------- 0 3.0 0.0 24 56
+ 2.243712 1 0 ack 40 ------- 0 3.0 0.0 24 56
- 2.243712 1 0 ack 40 ------- 0 3.0 0.0 24 56
r 2.247776 1 0 ack 40 ------- 0 3.0 0.0 23 55
+ 2.247776 0 1 tcp 1000 ------- 0 0.0 3.0 35 65
- 2.247776 0 1 tcp 1000 ------- 0 0.0 3.0 35 65
r 2.253376 0 1 tcp 1000 ------- 0 0.0 3.0 34 64
+ 2.253376 1 2 tcp 1000 ------- 0 0.0 3.0 34 64
- 2.253376 1 2 tcp 1000 ------- 0 0.0 3.0 34 64
r 2.259712 2 1 ack 40 ------- 0 3.0 0.0 25 57
+ 2.259712 1 0 ack 40 ------- 0 3.0 0.0 25 57
- 2.259712 1 0 ack 40 ------- 0 3.0 0.0 25 57
r 2.263776 1 0 ack 40 ------- 0 3.0 0.0 24 56
+ 2.263776 0 1 tcp 1000 ------- 0 0.0 3.0 36 66
- 2.263776 0 1 tcp 1000 ------- 0 0.0 3.0 36 66
r 2.269376 0 1 tcp 1000 ------- 0 0.0 3.0 35 65
+ 2.269376 1 2 tcp 1000 ------- 0 0.0 3.0 35 65
- 2.269376 1 2 tcp 1000 ------- 0 0.0 3.0 35 65
r 2.275712 2 1 ack 40 ------- 0 3.0 0.0 26 58
+ 2.275712 1 0 ack 40 ------- 0 3.0 0.0 26 58
- 2.275712 1 0 ack 40 ------- 0 3.0 0.0 26 58
r 2.279776 1 0 ack 40 ------- 0 3.0 0.0 25 57
+ 2.279776 0 1 tcp 1000 ------- 0 0.0 3.0 37 67
- 2.279776 0 1 tcp 1000 ------- 0 0.0 3.0 37 67
r 2.285376 0 1 tcp 1000 ------- 0 0.0 3.0 36 66
+ 2.285376 1 2 tcp 1000 ------- 0 0.0 3.0 36 66
- 2.285376 1 2 tcp 1000 ------- 0 0.0 3.0 36 66
r 2.291712 2 1 ack 40 ------- 0 3.0 0.0 27 59
+ 2.291712 1 0 ack 40 ------- 0 3.0 0.0 27 59
- 2.291712 1 0 ack 40 ------- 0 3.0 0.0 27 59
r 2.295776 1 0 ack 40 ------- 0 3.0 0.0 26 58
+ 2.295776 0 1 tcp 1000 ------- 0 0.0 3.0 38 68
- 2.295776 0 1 tcp 1000 ------- 0 0.0 3.0 38 68
r 2.301376 0 1 tcp 1000 ------- 0 0.0 3.0 37 67
+ 2.301376 1 2 tcp 1000 ------- 0 0.0 3.0 37 67
- 2.301376 1 2 tcp 1000 ------- 0 0.0 3.0 37 67
r 2.307712 2 1 ack 40 ------- 0 3.0 0.0 27 60
+ 2.307712 1 0 ack 40 ------- 0 3.0 0.0 27 60
- 2.307712 1 0 ack 40 ------- 0 3.0 0.0 27 60
r 2.311776 1 0 ack 40 ------- 0 3.0 0.0 27 59
+ 2.311776 0 1 tcp 1000 ------- 0 0.0 3.0 39 69
- 2.311776 0 1 tcp 1000 ------- 0 0.0 3.0 39 69
r 2.317376 0 1 tcp 1000 ------- 0 0.0 3.0 38 68
+ 2.317376 1 2 tcp 1000 ------- 0 0.0 3.0 38 68
- 2.317376 1 2 tcp 1000 ------- 0 0.0 3.0 38 68
r 2.323712 2 1 ack 40 ------- 0 3.0 0.0 27 62
+ 2.323712 1 0 ack 40 ------- 0 3.0 0.0 27 62
- 2.323712 1 0 ack 40 ------- 0 3.0 0.0 27 62
r 2.327776 1 0 ack 40 ------- 0 3.0 0.0 27 60
r 2.333376 0 1 tcp 1000 ------- 0 0.0 3.0 39 69
+ 2.333376 1 2 tcp 1000 ------- 0 0.0 3.0 39 69
- 2.333376 1 2 tcp 1000 ------- 0 0.0 3.0 39 69
r 2.337376 1 2 tcp 1000 ------- 0 0.0 3.0 32 61
+ 2.337376 2 3 tcp 1000 ------- 0 0.0 3.0 32 61
- 2.337376 2 3 tcp 1000 ------- 0 0.0 3.0 32 61
r 2.343776 1 0 ack 40 ------- 0 3.0 0.0 27 62
r 2.353376 1 2 tcp 1000 ------- 0 0.0 3.0 33 63
+ 2.353376 2 3 tcp 1000 ------- 0 0.0 3.0 33 63
- 2.353376 2 3 tcp 1000 ------- 0 0.0 3.0 33 63
r 2.358976 2 3 tcp 1000 ------- 0 0.0 3.0 32 61
+ 2.358976 3 2 ack 40 ------- 0 3.0 0.0 27 70
- 2.358976 3 2 ack 40 ------- 0 3.0 0.0 27 70
r 2.369376 1 2 tcp 1000 ------- 0 0.0 3.0 34 64
+ 2.369376 2 3 tcp 1000 ------- 0 0.0 3.0 34 64
- 2.369376 2 3 tcp 1000 ------- 0 0.0 3.0 34 64
r 2.374976 2 3 tcp 1000 ------- 0 0.0 3.0 33 63
+ 2.374976 3 2 ack 40 ------- 0 3.0 0.0 27 71
- 2.374976 3 2 ack 40 ------- 0 3.0 0.0 27 71
r 2.37904 3 2 ack 40 ------- 0 3.0 0.0 27 70
+ 2.37904 2 1 ack 40 ------- 0 3.0 0.0 27 70
- 2.37904 2 1 ack 40 ------- 0 3.0 0.0 27 70
r 2.385376 1 2 tcp 1000 ------- 0 0.0 3.0 35 65
+ 2.385376 2 3 tcp 1000 ------- 0 0.0 3.0 35 65
- 2.385376 2 3 tcp 1000 ------- 0 0.0 3.0 35 65
r 2.390976 2 3 tcp 1000 ------- 0 0.0 3.0 34 64
+ 2.390976 3 2 ack 40 ------- 0 3.0 0.0 27 72
- 2.390976 3 2 ack 40 ------- 0 3.0 0.0 27 72
r 2.39504 3 2 ack 40 ------- 0 3.0 0.0 27 71
+ 2.39504 2 1 ack 40 ------- 0 3.0 0.0 27 71
- 2.39504 2 1 ack 40 ------- 0 3.0 0.0 27 71
r 2.401376 1 2 tcp 1000 ------- 0 0.0 3.0 36 66
+ 2.401376 2 3 tcp 1000 ------- 0 0.0 3.0 36 66
- 2.401376 2 3 tcp 1000 ------- 0 0.0 3.0 36 66
r 2.406976 2 3 tcp 1000 ------- 0 0.0 3.0 35 65
+ 2.406976 3 2 ack 40 ------- 0 3.0 0.0 27 73
- 2.406976 3 2 ack 40 ------- 0 3.0 0.0 27 73
r 2.41104 3 2 ack 40 ------- 0 3.0 0.0 27 72
+ 2.41104 2 1 ack 40 ------- 0 3.0 0.0 27 72
- 2.41104 2 1 ack 40 ------- 0 3.0 0.0 27 72
r 2.417376 1 2 tcp 1000 ------- 0 0.0 3.0 37 67
+ 2.417376 2 3 tcp 1000 ------- 0 0.0 3.0 37 67
- 2.417376 2 3 tcp 1000 ------- 0 0.0 3.0 37 67
r 2.422976 2 3 tcp 1000 ------- 0 0.0 3.0 36 66
+ 2.422976 3 2 ack 40 ------- 0 3.0 0.0 27 74
- 2.422976 3 2 ack 40 ------- 0 3.0 0.0 27 74
r 2.42704 3 2 ack 40 ------- 0 3.0 0.0 27 73
+ 2.42704 2 1 ack 40 ------- 0 3.0 0.0 27 73
- 2.42704 2 1 ack 40 ------- 0 3.0 0.0 27 73
r 2.433376 1 2 tcp 1000 ------- 0 0.0 3.0 38 68
+ 2.433376 2 3 tcp 1000 ------- 0 0.0 3.0 38 68
- 2.433376 2 3 tcp 1000 ------- 0 0.0 3.0 38 68
r 2.438976 2 3 tcp 1000 ------- 0 0.0 3.0 37 67
+ 2.438976 3 2 ack 40 ------- 0 3.0 0.0 27 75
- 2.438976 3 2 ack 40 ------- 0 3.0 0.0 27 75
r 2.44304 3 2 ack 40 ------- 0 3.0 0.0 27 74
+ 2.44304 2 1 ack 40 ------- 0 3.0 0.0 27 74
- 2.44304 2 1 ack 40 ------- 0 3.0 0.0 27 74
r 2.449376 1 2 tcp 1000 ------- 0 0.0 3.0 39 69